PSF EXT CMAP XPLOR AUTOG

         3 !NTITLE
* GENERATED BY CHARMM-GUI (HTTP://WWW.CHARMM-GUI.ORG) V3.7 ON OCT, 22. 2024. JOB
* GET A DIFFERENT CONFORMATION FOR LIPIDS PENETRATING PROTEIN / CHOL            
*  DATE:    10/22/24     10:26:32      CREATED BY USER: apache                  

     22587 !NATOM
         1 MEMB     1        CHL1     C3       CRL1     0.140000       12.0110           0
         2 MEMB     1        CHL1     H3       HGA1     0.900000E-01   1.00800           0
         3 MEMB     1        CHL1     O3       OHL     -0.660000       15.9994           0
         4 MEMB     1        CHL1     H3'      HOL      0.430000       1.00800           0
         5 MEMB     1        CHL1     C4       CRL2    -0.180000       12.0110           0
         6 MEMB     1        CHL1     H4A      HGA2     0.900000E-01   1.00800           0
         7 MEMB     1        CHL1     H4B      HGA2     0.900000E-01   1.00800           0
         8 MEMB     1        CHL1     C5       CEL1      0.00000       12.0110           0
         9 MEMB     1        CHL1     C6       CEL1    -0.150000       12.0110           0
        10 MEMB     1        CHL1     H6       HEL1     0.150000       1.00800           0
        11 MEMB     1        CHL1     C7       CRL2    -0.180000       12.0110           0
        12 MEMB     1        CHL1     H7A      HGA2     0.900000E-01   1.00800           0
        13 MEMB     1        CHL1     H7B      HGA2     0.900000E-01   1.00800           0
        14 MEMB     1        CHL1     C8       CRL1    -0.900000E-01   12.0110           0
        15 MEMB     1        CHL1     H8       HGA1     0.900000E-01   1.00800           0
        16 MEMB     1        CHL1     C14      CRL1    -0.900000E-01   12.0110           0
        17 MEMB     1        CHL1     H14      HGA1     0.900000E-01   1.00800           0
        18 MEMB     1        CHL1     C15      CRL2    -0.180000       12.0110           0
        19 MEMB     1        CHL1     H15A     HGA2     0.900000E-01   1.00800           0
        20 MEMB     1        CHL1     H15B     HGA2     0.900000E-01   1.00800           0
        21 MEMB     1        CHL1     C16      CRL2    -0.180000       12.0110           0
        22 MEMB     1        CHL1     H16A     HGA2     0.900000E-01   1.00800           0
        23 MEMB     1        CHL1     H16B     HGA2     0.900000E-01   1.00800           0
        24 MEMB     1        CHL1     C17      CRL1    -0.900000E-01   12.0110           0
        25 MEMB     1        CHL1     H17      HGA1     0.900000E-01   1.00800           0
        26 MEMB     1        CHL1     C13      CRL1      0.00000       12.0110           0
        27 MEMB     1        CHL1     C18      CTL3    -0.270000       12.0110           0
        28 MEMB     1        CHL1     H18A     HAL3     0.900000E-01   1.00800           0
        29 MEMB     1        CHL1     H18B     HAL3     0.900000E-01   1.00800           0
        30 MEMB     1        CHL1     H18C     HAL3     0.900000E-01   1.00800           0
        31 MEMB     1        CHL1     C12      CRL2    -0.180000       12.0110           0
        32 MEMB     1        CHL1     H12A     HGA2     0.900000E-01   1.00800           0
        33 MEMB     1        CHL1     H12B     HGA2     0.900000E-01   1.00800           0
        34 MEMB     1        CHL1     C11      CRL2    -0.180000       12.0110           0
        35 MEMB     1        CHL1     H11A     HGA2     0.900000E-01   1.00800           0
        36 MEMB     1        CHL1     H11B     HGA2     0.900000E-01   1.00800           0
        37 MEMB     1        CHL1     C9       CRL1    -0.900000E-01   12.0110           0
        38 MEMB     1        CHL1     H9       HGA1     0.900000E-01   1.00800           0
        39 MEMB     1        CHL1     C10      CRL1      0.00000       12.0110           0
        40 MEMB     1        CHL1     C19      CTL3    -0.270000       12.0110           0
        41 MEMB     1        CHL1     H19A     HAL3     0.900000E-01   1.00800           0
        42 MEMB     1        CHL1     H19B     HAL3     0.900000E-01   1.00800           0
        43 MEMB     1        CHL1     H19C     HAL3     0.900000E-01   1.00800           0
        44 MEMB     1        CHL1     C1       CRL2    -0.180000       12.0110           0
        45 MEMB     1        CHL1     H1A      HGA2     0.900000E-01   1.00800           0
        46 MEMB     1        CHL1     H1B      HGA2     0.900000E-01   1.00800           0
        47 MEMB     1        CHL1     C2       CRL2    -0.180000       12.0110           0
        48 MEMB     1        CHL1     H2A      HGA2     0.900000E-01   1.00800           0
        49 MEMB     1        CHL1     H2B      HGA2     0.900000E-01   1.00800           0
        50 MEMB     1        CHL1     C20      CTL1    -0.900000E-01   12.0110           0
        51 MEMB     1        CHL1     H20      HAL1     0.900000E-01   1.00800           0
        52 MEMB     1        CHL1     C21      CTL3    -0.270000       12.0110           0
        53 MEMB     1        CHL1     H21A     HAL3     0.900000E-01   1.00800           0
        54 MEMB     1        CHL1     H21B     HAL3     0.900000E-01   1.00800           0
        55 MEMB     1        CHL1     H21C     HAL3     0.900000E-01   1.00800           0
        56 MEMB     1        CHL1     C22      CTL2    -0.180000       12.0110           0
        57 MEMB     1        CHL1     H22A     HAL2     0.900000E-01   1.00800           0
        58 MEMB     1        CHL1     H22B     HAL2     0.900000E-01   1.00800           0
        59 MEMB     1        CHL1     C23      CTL2    -0.180000       12.0110           0
        60 MEMB     1        CHL1     H23A     HAL2     0.900000E-01   1.00800           0
        61 MEMB     1        CHL1     H23B     HAL2     0.900000E-01   1.00800           0
        62 MEMB     1        CHL1     C24      CTL2    -0.180000       12.0110           0
        63 MEMB     1        CHL1     H24A     HAL2     0.900000E-01   1.00800           0
        64 MEMB     1        CHL1     H24B     HAL2     0.900000E-01   1.00800           0
        65 MEMB     1        CHL1     C25      CTL1    -0.900000E-01   12.0110           0
        66 MEMB     1        CHL1     H25      HAL1     0.900000E-01   1.00800           0
        67 MEMB     1        CHL1     C26      CTL3    -0.270000       12.0110           0
        68 MEMB     1        CHL1     H26A     HAL3     0.900000E-01   1.00800           0
        69 MEMB     1        CHL1     H26B     HAL3     0.900000E-01   1.00800           0
        70 MEMB     1        CHL1     H26C     HAL3     0.900000E-01   1.00800           0
        71 MEMB     1        CHL1     C27      CTL3    -0.270000       12.0110           0
        72 MEMB     1        CHL1     H27A     HAL3     0.900000E-01   1.00800           0
        73 MEMB     1        CHL1     H27B     HAL3     0.900000E-01   1.00800           0
        74 MEMB     1        CHL1     H27C     HAL3     0.900000E-01   1.00800           0
        75 MEMB     2        CHL1     C3       CRL1     0.140000       12.0110           0
        76 MEMB     2        CHL1     H3       HGA1     0.900000E-01   1.00800           0
        77 MEMB     2        CHL1     O3       OHL     -0.660000       15.9994           0
        78 MEMB     2        CHL1     H3'      HOL      0.430000       1.00800           0
        79 MEMB     2        CHL1     C4       CRL2    -0.180000       12.0110           0
        80 MEMB     2        CHL1     H4A      HGA2     0.900000E-01   1.00800           0
        81 MEMB     2        CHL1     H4B      HGA2     0.900000E-01   1.00800           0
        82 MEMB     2        CHL1     C5       CEL1      0.00000       12.0110           0
        83 MEMB     2        CHL1     C6       CEL1    -0.150000       12.0110           0
        84 MEMB     2        CHL1     H6       HEL1     0.150000       1.00800           0
        85 MEMB     2        CHL1     C7       CRL2    -0.180000       12.0110           0
        86 MEMB     2        CHL1     H7A      HGA2     0.900000E-01   1.00800           0
        87 MEMB     2        CHL1     H7B      HGA2     0.900000E-01   1.00800           0
        88 MEMB     2        CHL1     C8       CRL1    -0.900000E-01   12.0110           0
        89 MEMB     2        CHL1     H8       HGA1     0.900000E-01   1.00800           0
        90 MEMB     2        CHL1     C14      CRL1    -0.900000E-01   12.0110           0
        91 MEMB     2        CHL1     H14      HGA1     0.900000E-01   1.00800           0
        92 MEMB     2        CHL1     C15      CRL2    -0.180000       12.0110           0
        93 MEMB     2        CHL1     H15A     HGA2     0.900000E-01   1.00800           0
        94 MEMB     2        CHL1     H15B     HGA2     0.900000E-01   1.00800           0
        95 MEMB     2        CHL1     C16      CRL2    -0.180000       12.0110           0
        96 MEMB     2        CHL1     H16A     HGA2     0.900000E-01   1.00800           0
        97 MEMB     2        CHL1     H16B     HGA2     0.900000E-01   1.00800           0
        98 MEMB     2        CHL1     C17      CRL1    -0.900000E-01   12.0110           0
        99 MEMB     2        CHL1     H17      HGA1     0.900000E-01   1.00800           0
       100 MEMB     2        CHL1     C13      CRL1      0.00000       12.0110           0
       101 MEMB     2        CHL1     C18      CTL3    -0.270000       12.0110           0
       102 MEMB     2        CHL1     H18A     HAL3     0.900000E-01   1.00800           0
       103 MEMB     2        CHL1     H18B     HAL3     0.900000E-01   1.00800           0
       104 MEMB     2        CHL1     H18C     HAL3     0.900000E-01   1.00800           0
       105 MEMB     2        CHL1     C12      CRL2    -0.180000       12.0110           0
       106 MEMB     2        CHL1     H12A     HGA2     0.900000E-01   1.00800           0
       107 MEMB     2        CHL1     H12B     HGA2     0.900000E-01   1.00800           0
       108 MEMB     2        CHL1     C11      CRL2    -0.180000       12.0110           0
       109 MEMB     2        CHL1     H11A     HGA2     0.900000E-01   1.00800           0
       110 MEMB     2        CHL1     H11B     HGA2     0.900000E-01   1.00800           0
       111 MEMB     2        CHL1     C9       CRL1    -0.900000E-01   12.0110           0
       112 MEMB     2        CHL1     H9       HGA1     0.900000E-01   1.00800           0
       113 MEMB     2        CHL1     C10      CRL1      0.00000       12.0110           0
       114 MEMB     2        CHL1     C19      CTL3    -0.270000       12.0110           0
       115 MEMB     2        CHL1     H19A     HAL3     0.900000E-01   1.00800           0
       116 MEMB     2        CHL1     H19B     HAL3     0.900000E-01   1.00800           0
       117 MEMB     2        CHL1     H19C     HAL3     0.900000E-01   1.00800           0
       118 MEMB     2        CHL1     C1       CRL2    -0.180000       12.0110           0
       119 MEMB     2        CHL1     H1A      HGA2     0.900000E-01   1.00800           0
       120 MEMB     2        CHL1     H1B      HGA2     0.900000E-01   1.00800           0
       121 MEMB     2        CHL1     C2       CRL2    -0.180000       12.0110           0
       122 MEMB     2        CHL1     H2A      HGA2     0.900000E-01   1.00800           0
       123 MEMB     2        CHL1     H2B      HGA2     0.900000E-01   1.00800           0
       124 MEMB     2        CHL1     C20      CTL1    -0.900000E-01   12.0110           0
       125 MEMB     2        CHL1     H20      HAL1     0.900000E-01   1.00800           0
       126 MEMB     2        CHL1     C21      CTL3    -0.270000       12.0110           0
       127 MEMB     2        CHL1     H21A     HAL3     0.900000E-01   1.00800           0
       128 MEMB     2        CHL1     H21B     HAL3     0.900000E-01   1.00800           0
       129 MEMB     2        CHL1     H21C     HAL3     0.900000E-01   1.00800           0
       130 MEMB     2        CHL1     C22      CTL2    -0.180000       12.0110           0
       131 MEMB     2        CHL1     H22A     HAL2     0.900000E-01   1.00800           0
       132 MEMB     2        CHL1     H22B     HAL2     0.900000E-01   1.00800           0
       133 MEMB     2        CHL1     C23      CTL2    -0.180000       12.0110           0
       134 MEMB     2        CHL1     H23A     HAL2     0.900000E-01   1.00800           0
       135 MEMB     2        CHL1     H23B     HAL2     0.900000E-01   1.00800           0
       136 MEMB     2        CHL1     C24      CTL2    -0.180000       12.0110           0
       137 MEMB     2        CHL1     H24A     HAL2     0.900000E-01   1.00800           0
       138 MEMB     2        CHL1     H24B     HAL2     0.900000E-01   1.00800           0
       139 MEMB     2        CHL1     C25      CTL1    -0.900000E-01   12.0110           0
       140 MEMB     2        CHL1     H25      HAL1     0.900000E-01   1.00800           0
       141 MEMB     2        CHL1     C26      CTL3    -0.270000       12.0110           0
       142 MEMB     2        CHL1     H26A     HAL3     0.900000E-01   1.00800           0
       143 MEMB     2        CHL1     H26B     HAL3     0.900000E-01   1.00800           0
       144 MEMB     2        CHL1     H26C     HAL3     0.900000E-01   1.00800           0
       145 MEMB     2        CHL1     C27      CTL3    -0.270000       12.0110           0
       146 MEMB     2        CHL1     H27A     HAL3     0.900000E-01   1.00800           0
       147 MEMB     2        CHL1     H27B     HAL3     0.900000E-01   1.00800           0
       148 MEMB     2        CHL1     H27C     HAL3     0.900000E-01   1.00800           0
       149 MEMB     3        SAPC     N        NTL     -0.600000       14.0070           0
       150 MEMB     3        SAPC     C12      CTL2    -0.100000       12.0110           0
       151 MEMB     3        SAPC     H12A     HL       0.250000       1.00800           0
       152 MEMB     3        SAPC     H12B     HL       0.250000       1.00800           0
       153 MEMB     3        SAPC     C13      CTL5    -0.350000       12.0110           0
       154 MEMB     3        SAPC     H13A     HL       0.250000       1.00800           0
       155 MEMB     3        SAPC     H13B     HL       0.250000       1.00800           0
       156 MEMB     3        SAPC     H13C     HL       0.250000       1.00800           0
       157 MEMB     3        SAPC     C14      CTL5    -0.350000       12.0110           0
       158 MEMB     3        SAPC     H14A     HL       0.250000       1.00800           0
       159 MEMB     3        SAPC     H14B     HL       0.250000       1.00800           0
       160 MEMB     3        SAPC     H14C     HL       0.250000       1.00800           0
       161 MEMB     3        SAPC     C15      CTL5    -0.350000       12.0110           0
       162 MEMB     3        SAPC     H15A     HL       0.250000       1.00800           0
       163 MEMB     3        SAPC     H15B     HL       0.250000       1.00800           0
       164 MEMB     3        SAPC     H15C     HL       0.250000       1.00800           0
       165 MEMB     3        SAPC     C11      CTL2    -0.800000E-01   12.0110           0
       166 MEMB     3        SAPC     H11A     HAL2     0.900000E-01   1.00800           0
       167 MEMB     3        SAPC     H11B     HAL2     0.900000E-01   1.00800           0
       168 MEMB     3        SAPC     P        PL        1.50000       30.9740           0
       169 MEMB     3        SAPC     O13      O2L     -0.780000       15.9994           0
       170 MEMB     3        SAPC     O14      O2L     -0.780000       15.9994           0
       171 MEMB     3        SAPC     O12      OSLP    -0.570000       15.9994           0
       172 MEMB     3        SAPC     O11      OSLP    -0.570000       15.9994           0
       173 MEMB     3        SAPC     C1       CTL2    -0.800000E-01   12.0110           0
       174 MEMB     3        SAPC     HA       HAL2     0.900000E-01   1.00800           0
       175 MEMB     3        SAPC     HB       HAL2     0.900000E-01   1.00800           0
       176 MEMB     3        SAPC     C2       CTL1     0.170000       12.0110           0
       177 MEMB     3        SAPC     HS       HAL1     0.900000E-01   1.00800           0
       178 MEMB     3        SAPC     O21      OSL     -0.490000       15.9994           0
       179 MEMB     3        SAPC     C21      CL       0.900000       12.0110           0
       180 MEMB     3        SAPC     O22      OBL     -0.630000       15.9994           0
       181 MEMB     3        SAPC     C22      CTL2    -0.220000       12.0110           0
       182 MEMB     3        SAPC     H2R      HAL2     0.900000E-01   1.00800           0
       183 MEMB     3        SAPC     H2S      HAL2     0.900000E-01   1.00800           0
       184 MEMB     3        SAPC     C3       CTL2     0.800000E-01   12.0110           0
       185 MEMB     3        SAPC     HX       HAL2     0.900000E-01   1.00800           0
       186 MEMB     3        SAPC     HY       HAL2     0.900000E-01   1.00800           0
       187 MEMB     3        SAPC     O31      OSL     -0.490000       15.9994           0
       188 MEMB     3        SAPC     C31      CL       0.900000       12.0110           0
       189 MEMB     3        SAPC     O32      OBL     -0.630000       15.9994           0
       190 MEMB     3        SAPC     C32      CTL2    -0.220000       12.0110           0
       191 MEMB     3        SAPC     H2X      HAL2     0.900000E-01   1.00800           0
       192 MEMB     3        SAPC     H2Y      HAL2     0.900000E-01   1.00800           0
       193 MEMB     3        SAPC     C23      CTL2    -0.180000       12.0110           0
       194 MEMB     3        SAPC     H3R      HAL2     0.900000E-01   1.00800           0
       195 MEMB     3        SAPC     H3S      HAL2     0.900000E-01   1.00800           0
       196 MEMB     3        SAPC     C24      CTL2    -0.180000       12.0110           0
       197 MEMB     3        SAPC     H4R      HAL2     0.900000E-01   1.00800           0
       198 MEMB     3        SAPC     H4S      HAL2     0.900000E-01   1.00800           0
       199 MEMB     3        SAPC     C25      CEL1    -0.150000       12.0110           0
       200 MEMB     3        SAPC     H5R      HEL1     0.150000       1.00800           0
       201 MEMB     3        SAPC     C26      CEL1    -0.150000       12.0110           0
       202 MEMB     3        SAPC     H6R      HEL1     0.150000       1.00800           0
       203 MEMB     3        SAPC     C27      CTL2    -0.180000       12.0110           0
       204 MEMB     3        SAPC     H7R      HAL2     0.900000E-01   1.00800           0
       205 MEMB     3        SAPC     H7S      HAL2     0.900000E-01   1.00800           0
       206 MEMB     3        SAPC     C28      CEL1    -0.150000       12.0110           0
       207 MEMB     3        SAPC     H8R      HEL1     0.150000       1.00800           0
       208 MEMB     3        SAPC     C29      CEL1    -0.150000       12.0110           0
       209 MEMB     3        SAPC     H9R      HEL1     0.150000       1.00800           0
       210 MEMB     3        SAPC     C210     CTL2    -0.180000       12.0110           0
       211 MEMB     3        SAPC     H10R     HAL2     0.900000E-01   1.00800           0
       212 MEMB     3        SAPC     H10S     HAL2     0.900000E-01   1.00800           0
       213 MEMB     3        SAPC     C211     CEL1    -0.150000       12.0110           0
       214 MEMB     3        SAPC     H11R     HEL1     0.150000       1.00800           0
       215 MEMB     3        SAPC     C212     CEL1    -0.150000       12.0110           0
       216 MEMB     3        SAPC     H12R     HEL1     0.150000       1.00800           0
       217 MEMB     3        SAPC     C213     CTL2    -0.180000       12.0110           0
       218 MEMB     3        SAPC     H13R     HAL2     0.900000E-01   1.00800           0
       219 MEMB     3        SAPC     H13S     HAL2     0.900000E-01   1.00800           0
       220 MEMB     3        SAPC     C214     CEL1    -0.150000       12.0110           0
       221 MEMB     3        SAPC     H14R     HEL1     0.150000       1.00800           0
       222 MEMB     3        SAPC     C215     CEL1    -0.150000       12.0110           0
       223 MEMB     3        SAPC     H15R     HEL1     0.150000       1.00800           0
       224 MEMB     3        SAPC     C216     CTL2    -0.180000       12.0110           0
       225 MEMB     3        SAPC     H16R     HAL2     0.900000E-01   1.00800           0
       226 MEMB     3        SAPC     H16S     HAL2     0.900000E-01   1.00800           0
       227 MEMB     3        SAPC     C217     CTL2    -0.180000       12.0110           0
       228 MEMB     3        SAPC     H17R     HAL2     0.900000E-01   1.00800           0
       229 MEMB     3        SAPC     H17S     HAL2     0.900000E-01   1.00800           0
       230 MEMB     3        SAPC     C218     CTL2    -0.270000       12.0110           0
       231 MEMB     3        SAPC     H18R     HAL2     0.900000E-01   1.00800           0
       232 MEMB     3        SAPC     H18S     HAL2     0.900000E-01   1.00800           0
       233 MEMB     3        SAPC     C219     CTL2    -0.180000       12.0110           0
       234 MEMB     3        SAPC     H19R     HAL2     0.900000E-01   1.00800           0
       235 MEMB     3        SAPC     H19S     HAL2     0.900000E-01   1.00800           0
       236 MEMB     3        SAPC     C220     CTL3    -0.180000       12.0110           0
       237 MEMB     3        SAPC     H20R     HAL3     0.900000E-01   1.00800           0
       238 MEMB     3        SAPC     H20S     HAL3     0.900000E-01   1.00800           0
       239 MEMB     3        SAPC     H20T     HAL3     0.900000E-01   1.00800           0
       240 MEMB     3        SAPC     C33      CTL2    -0.180000       12.0110           0
       241 MEMB     3        SAPC     H3X      HAL2     0.900000E-01   1.00800           0
       242 MEMB     3        SAPC     H3Y      HAL2     0.900000E-01   1.00800           0
       243 MEMB     3        SAPC     C34      CTL2    -0.180000       12.0110           0
       244 MEMB     3        SAPC     H4X      HAL2     0.900000E-01   1.00800           0
       245 MEMB     3        SAPC     H4Y      HAL2     0.900000E-01   1.00800           0
       246 MEMB     3        SAPC     C35      CTL2    -0.180000       12.0110           0
       247 MEMB     3        SAPC     H5X      HAL2     0.900000E-01   1.00800           0
       248 MEMB     3        SAPC     H5Y      HAL2     0.900000E-01   1.00800           0
       249 MEMB     3        SAPC     C36      CTL2    -0.180000       12.0110           0
       250 MEMB     3        SAPC     H6X      HAL2     0.900000E-01   1.00800           0
       251 MEMB     3        SAPC     H6Y      HAL2     0.900000E-01   1.00800           0
       252 MEMB     3        SAPC     C37      CTL2    -0.180000       12.0110           0
       253 MEMB     3        SAPC     H7X      HAL2     0.900000E-01   1.00800           0
       254 MEMB     3        SAPC     H7Y      HAL2     0.900000E-01   1.00800           0
       255 MEMB     3        SAPC     C38      CTL2    -0.180000       12.0110           0
       256 MEMB     3        SAPC     H8X      HAL2     0.900000E-01   1.00800           0
       257 MEMB     3        SAPC     H8Y      HAL2     0.900000E-01   1.00800           0
       258 MEMB     3        SAPC     C39      CTL2    -0.180000       12.0110           0
       259 MEMB     3        SAPC     H9X      HAL2     0.900000E-01   1.00800           0
       260 MEMB     3        SAPC     H9Y      HAL2     0.900000E-01   1.00800           0
       261 MEMB     3        SAPC     C310     CTL2    -0.180000       12.0110           0
       262 MEMB     3        SAPC     H10X     HAL2     0.900000E-01   1.00800           0
       263 MEMB     3        SAPC     H10Y     HAL2     0.900000E-01   1.00800           0
       264 MEMB     3        SAPC     C311     CTL2    -0.180000       12.0110           0
       265 MEMB     3        SAPC     H11X     HAL2     0.900000E-01   1.00800           0
       266 MEMB     3        SAPC     H11Y     HAL2     0.900000E-01   1.00800           0
       267 MEMB     3        SAPC     C312     CTL2    -0.180000       12.0110           0
       268 MEMB     3        SAPC     H12X     HAL2     0.900000E-01   1.00800           0
       269 MEMB     3        SAPC     H12Y     HAL2     0.900000E-01   1.00800           0
       270 MEMB     3        SAPC     C313     CTL2    -0.180000       12.0110           0
       271 MEMB     3        SAPC     H13X     HAL2     0.900000E-01   1.00800           0
       272 MEMB     3        SAPC     H13Y     HAL2     0.900000E-01   1.00800           0
       273 MEMB     3        SAPC     C314     CTL2    -0.180000       12.0110           0
       274 MEMB     3        SAPC     H14X     HAL2     0.900000E-01   1.00800           0
       275 MEMB     3        SAPC     H14Y     HAL2     0.900000E-01   1.00800           0
       276 MEMB     3        SAPC     C315     CTL2    -0.180000       12.0110           0
       277 MEMB     3        SAPC     H15X     HAL2     0.900000E-01   1.00800           0
       278 MEMB     3        SAPC     H15Y     HAL2     0.900000E-01   1.00800           0
       279 MEMB     3        SAPC     C316     CTL2    -0.180000       12.0110           0
       280 MEMB     3        SAPC     H16X     HAL2     0.900000E-01   1.00800           0
       281 MEMB     3        SAPC     H16Y     HAL2     0.900000E-01   1.00800           0
       282 MEMB     3        SAPC     C317     CTL2    -0.180000       12.0110           0
       283 MEMB     3        SAPC     H17X     HAL2     0.900000E-01   1.00800           0
       284 MEMB     3        SAPC     H17Y     HAL2     0.900000E-01   1.00800           0
       285 MEMB     3        SAPC     C318     CTL3    -0.270000       12.0110           0
       286 MEMB     3        SAPC     H18X     HAL3     0.900000E-01   1.00800           0
       287 MEMB     3        SAPC     H18Y     HAL3     0.900000E-01   1.00800           0
       288 MEMB     3        SAPC     H18Z     HAL3     0.900000E-01   1.00800           0
       289 MEMB     4        CHL1     C3       CRL1     0.140000       12.0110           0
       290 MEMB     4        CHL1     H3       HGA1     0.900000E-01   1.00800           0
       291 MEMB     4        CHL1     O3       OHL     -0.660000       15.9994           0
       292 MEMB     4        CHL1     H3'      HOL      0.430000       1.00800           0
       293 MEMB     4        CHL1     C4       CRL2    -0.180000       12.0110           0
       294 MEMB     4        CHL1     H4A      HGA2     0.900000E-01   1.00800           0
       295 MEMB     4        CHL1     H4B      HGA2     0.900000E-01   1.00800           0
       296 MEMB     4        CHL1     C5       CEL1      0.00000       12.0110           0
       297 MEMB     4        CHL1     C6       CEL1    -0.150000       12.0110           0
       298 MEMB     4        CHL1     H6       HEL1     0.150000       1.00800           0
       299 MEMB     4        CHL1     C7       CRL2    -0.180000       12.0110           0
       300 MEMB     4        CHL1     H7A      HGA2     0.900000E-01   1.00800           0
       301 MEMB     4        CHL1     H7B      HGA2     0.900000E-01   1.00800           0
       302 MEMB     4        CHL1     C8       CRL1    -0.900000E-01   12.0110           0
       303 MEMB     4        CHL1     H8       HGA1     0.900000E-01   1.00800           0
       304 MEMB     4        CHL1     C14      CRL1    -0.900000E-01   12.0110           0
       305 MEMB     4        CHL1     H14      HGA1     0.900000E-01   1.00800           0
       306 MEMB     4        CHL1     C15      CRL2    -0.180000       12.0110           0
       307 MEMB     4        CHL1     H15A     HGA2     0.900000E-01   1.00800           0
       308 MEMB     4        CHL1     H15B     HGA2     0.900000E-01   1.00800           0
       309 MEMB     4        CHL1     C16      CRL2    -0.180000       12.0110           0
       310 MEMB     4        CHL1     H16A     HGA2     0.900000E-01   1.00800           0
       311 MEMB     4        CHL1     H16B     HGA2     0.900000E-01   1.00800           0
       312 MEMB     4        CHL1     C17      CRL1    -0.900000E-01   12.0110           0
       313 MEMB     4        CHL1     H17      HGA1     0.900000E-01   1.00800           0
       314 MEMB     4        CHL1     C13      CRL1      0.00000       12.0110           0
       315 MEMB     4        CHL1     C18      CTL3    -0.270000       12.0110           0
       316 MEMB     4        CHL1     H18A     HAL3     0.900000E-01   1.00800           0
       317 MEMB     4        CHL1     H18B     HAL3     0.900000E-01   1.00800           0
       318 MEMB     4        CHL1     H18C     HAL3     0.900000E-01   1.00800           0
       319 MEMB     4        CHL1     C12      CRL2    -0.180000       12.0110           0
       320 MEMB     4        CHL1     H12A     HGA2     0.900000E-01   1.00800           0
       321 MEMB     4        CHL1     H12B     HGA2     0.900000E-01   1.00800           0
       322 MEMB     4        CHL1     C11      CRL2    -0.180000       12.0110           0
       323 MEMB     4        CHL1     H11A     HGA2     0.900000E-01   1.00800           0
       324 MEMB     4        CHL1     H11B     HGA2     0.900000E-01   1.00800           0
       325 MEMB     4        CHL1     C9       CRL1    -0.900000E-01   12.0110           0
       326 MEMB     4        CHL1     H9       HGA1     0.900000E-01   1.00800           0
       327 MEMB     4        CHL1     C10      CRL1      0.00000       12.0110           0
       328 MEMB     4        CHL1     C19      CTL3    -0.270000       12.0110           0
       329 MEMB     4        CHL1     H19A     HAL3     0.900000E-01   1.00800           0
       330 MEMB     4        CHL1     H19B     HAL3     0.900000E-01   1.00800           0
       331 MEMB     4        CHL1     H19C     HAL3     0.900000E-01   1.00800           0
       332 MEMB     4        CHL1     C1       CRL2    -0.180000       12.0110           0
       333 MEMB     4        CHL1     H1A      HGA2     0.900000E-01   1.00800           0
       334 MEMB     4        CHL1     H1B      HGA2     0.900000E-01   1.00800           0
       335 MEMB     4        CHL1     C2       CRL2    -0.180000       12.0110           0
       336 MEMB     4        CHL1     H2A      HGA2     0.900000E-01   1.00800           0
       337 MEMB     4        CHL1     H2B      HGA2     0.900000E-01   1.00800           0
       338 MEMB     4        CHL1     C20      CTL1    -0.900000E-01   12.0110           0
       339 MEMB     4        CHL1     H20      HAL1     0.900000E-01   1.00800           0
       340 MEMB     4        CHL1     C21      CTL3    -0.270000       12.0110           0
       341 MEMB     4        CHL1     H21A     HAL3     0.900000E-01   1.00800           0
       342 MEMB     4        CHL1     H21B     HAL3     0.900000E-01   1.00800           0
       343 MEMB     4        CHL1     H21C     HAL3     0.900000E-01   1.00800           0
       344 MEMB     4        CHL1     C22      CTL2    -0.180000       12.0110           0
       345 MEMB     4        CHL1     H22A     HAL2     0.900000E-01   1.00800           0
       346 MEMB     4        CHL1     H22B     HAL2     0.900000E-01   1.00800           0
       347 MEMB     4        CHL1     C23      CTL2    -0.180000       12.0110           0
       348 MEMB     4        CHL1     H23A     HAL2     0.900000E-01   1.00800           0
       349 MEMB     4        CHL1     H23B     HAL2     0.900000E-01   1.00800           0
       350 MEMB     4        CHL1     C24      CTL2    -0.180000       12.0110           0
       351 MEMB     4        CHL1     H24A     HAL2     0.900000E-01   1.00800           0
       352 MEMB     4        CHL1     H24B     HAL2     0.900000E-01   1.00800           0
       353 MEMB     4        CHL1     C25      CTL1    -0.900000E-01   12.0110           0
       354 MEMB     4        CHL1     H25      HAL1     0.900000E-01   1.00800           0
       355 MEMB     4        CHL1     C26      CTL3    -0.270000       12.0110           0
       356 MEMB     4        CHL1     H26A     HAL3     0.900000E-01   1.00800           0
       357 MEMB     4        CHL1     H26B     HAL3     0.900000E-01   1.00800           0
       358 MEMB     4        CHL1     H26C     HAL3     0.900000E-01   1.00800           0
       359 MEMB     4        CHL1     C27      CTL3    -0.270000       12.0110           0
       360 MEMB     4        CHL1     H27A     HAL3     0.900000E-01   1.00800           0
       361 MEMB     4        CHL1     H27B     HAL3     0.900000E-01   1.00800           0
       362 MEMB     4        CHL1     H27C     HAL3     0.900000E-01   1.00800           0
       363 MEMB     5        SLPC     N        NTL     -0.600000       14.0070           0
       364 MEMB     5        SLPC     C13      CTL5    -0.350000       12.0110           0
       365 MEMB     5        SLPC     H13A     HL       0.250000       1.00800           0
       366 MEMB     5        SLPC     H13B     HL       0.250000       1.00800           0
       367 MEMB     5        SLPC     H13C     HL       0.250000       1.00800           0
       368 MEMB     5        SLPC     C14      CTL5    -0.350000       12.0110           0
       369 MEMB     5        SLPC     H14A     HL       0.250000       1.00800           0
       370 MEMB     5        SLPC     H14B     HL       0.250000       1.00800           0
       371 MEMB     5        SLPC     H14C     HL       0.250000       1.00800           0
       372 MEMB     5        SLPC     C15      CTL5    -0.350000       12.0110           0
       373 MEMB     5        SLPC     H15A     HL       0.250000       1.00800           0
       374 MEMB     5        SLPC     H15B     HL       0.250000       1.00800           0
       375 MEMB     5        SLPC     H15C     HL       0.250000       1.00800           0
       376 MEMB     5        SLPC     C12      CTL2    -0.100000       12.0110           0
       377 MEMB     5        SLPC     H12A     HL       0.250000       1.00800           0
       378 MEMB     5        SLPC     H12B     HL       0.250000       1.00800           0
       379 MEMB     5        SLPC     C11      CTL2    -0.800000E-01   12.0110           0
       380 MEMB     5        SLPC     H11A     HAL2     0.900000E-01   1.00800           0
       381 MEMB     5        SLPC     H11B     HAL2     0.900000E-01   1.00800           0
       382 MEMB     5        SLPC     P        PL        1.50000       30.9740           0
       383 MEMB     5        SLPC     O13      O2L     -0.780000       15.9994           0
       384 MEMB     5        SLPC     O14      O2L     -0.780000       15.9994           0
       385 MEMB     5        SLPC     O12      OSLP    -0.570000       15.9994           0
       386 MEMB     5        SLPC     O11      OSLP    -0.570000       15.9994           0
       387 MEMB     5        SLPC     C1       CTL2    -0.800000E-01   12.0110           0
       388 MEMB     5        SLPC     HA       HAL2     0.900000E-01   1.00800           0
       389 MEMB     5        SLPC     HB       HAL2     0.900000E-01   1.00800           0
       390 MEMB     5        SLPC     C2       CTL1     0.170000       12.0110           0
       391 MEMB     5        SLPC     HS       HAL1     0.900000E-01   1.00800           0
       392 MEMB     5        SLPC     O21      OSL     -0.490000       15.9994           0
       393 MEMB     5        SLPC     C21      CL       0.900000       12.0110           0
       394 MEMB     5        SLPC     O22      OBL     -0.630000       15.9994           0
       395 MEMB     5        SLPC     C22      CTL2    -0.220000       12.0110           0
       396 MEMB     5        SLPC     H2R      HAL2     0.900000E-01   1.00800           0
       397 MEMB     5        SLPC     H2S      HAL2     0.900000E-01   1.00800           0
       398 MEMB     5        SLPC     C3       CTL2     0.800000E-01   12.0110           0
       399 MEMB     5        SLPC     HX       HAL2     0.900000E-01   1.00800           0
       400 MEMB     5        SLPC     HY       HAL2     0.900000E-01   1.00800           0
       401 MEMB     5        SLPC     O31      OSL     -0.490000       15.9994           0
       402 MEMB     5        SLPC     C31      CL       0.900000       12.0110           0
       403 MEMB     5        SLPC     O32      OBL     -0.630000       15.9994           0
       404 MEMB     5        SLPC     C32      CTL2    -0.220000       12.0110           0
       405 MEMB     5        SLPC     H2X      HAL2     0.900000E-01   1.00800           0
       406 MEMB     5        SLPC     H2Y      HAL2     0.900000E-01   1.00800           0
       407 MEMB     5        SLPC     C23      CTL2    -0.180000       12.0110           0
       408 MEMB     5        SLPC     H3R      HAL2     0.900000E-01   1.00800           0
       409 MEMB     5        SLPC     H3S      HAL2     0.900000E-01   1.00800           0
       410 MEMB     5        SLPC     C24      CTL2    -0.180000       12.0110           0
       411 MEMB     5        SLPC     H4R      HAL2     0.900000E-01   1.00800           0
       412 MEMB     5        SLPC     H4S      HAL2     0.900000E-01   1.00800           0
       413 MEMB     5        SLPC     C25      CTL2    -0.180000       12.0110           0
       414 MEMB     5        SLPC     H5R      HAL2     0.900000E-01   1.00800           0
       415 MEMB     5        SLPC     H5S      HAL2     0.900000E-01   1.00800           0
       416 MEMB     5        SLPC     C26      CTL2    -0.180000       12.0110           0
       417 MEMB     5        SLPC     H6R      HAL2     0.900000E-01   1.00800           0
       418 MEMB     5        SLPC     H6S      HAL2     0.900000E-01   1.00800           0
       419 MEMB     5        SLPC     C27      CTL2    -0.180000       12.0110           0
       420 MEMB     5        SLPC     H7R      HAL2     0.900000E-01   1.00800           0
       421 MEMB     5        SLPC     H7S      HAL2     0.900000E-01   1.00800           0
       422 MEMB     5        SLPC     C28      CTL2    -0.180000       12.0110           0
       423 MEMB     5        SLPC     H8R      HAL2     0.900000E-01   1.00800           0
       424 MEMB     5        SLPC     H8S      HAL2     0.900000E-01   1.00800           0
       425 MEMB     5        SLPC     C29      CEL1    -0.150000       12.0110           0
       426 MEMB     5        SLPC     H9R      HEL1     0.150000       1.00800           0
       427 MEMB     5        SLPC     C210     CEL1    -0.150000       12.0110           0
       428 MEMB     5        SLPC     H10R     HEL1     0.150000       1.00800           0
       429 MEMB     5        SLPC     C211     CTL2    -0.180000       12.0110           0
       430 MEMB     5        SLPC     H11R     HAL2     0.900000E-01   1.00800           0
       431 MEMB     5        SLPC     H11S     HAL2     0.900000E-01   1.00800           0
       432 MEMB     5        SLPC     C212     CEL1    -0.150000       12.0110           0
       433 MEMB     5        SLPC     H12R     HEL1     0.150000       1.00800           0
       434 MEMB     5        SLPC     C213     CEL1    -0.150000       12.0110           0
       435 MEMB     5        SLPC     H13R     HEL1     0.150000       1.00800           0
       436 MEMB     5        SLPC     C214     CTL2    -0.180000       12.0110           0
       437 MEMB     5        SLPC     H14R     HAL2     0.900000E-01   1.00800           0
       438 MEMB     5        SLPC     H14S     HAL2     0.900000E-01   1.00800           0
       439 MEMB     5        SLPC     C215     CTL2    -0.180000       12.0110           0
       440 MEMB     5        SLPC     H15R     HAL2     0.900000E-01   1.00800           0
       441 MEMB     5        SLPC     H15S     HAL2     0.900000E-01   1.00800           0
       442 MEMB     5        SLPC     C216     CTL2    -0.180000       12.0110           0
       443 MEMB     5        SLPC     H16R     HAL2     0.900000E-01   1.00800           0
       444 MEMB     5        SLPC     H16S     HAL2     0.900000E-01   1.00800           0
       445 MEMB     5        SLPC     C217     CTL2    -0.180000       12.0110           0
       446 MEMB     5        SLPC     H17R     HAL2     0.900000E-01   1.00800           0
       447 MEMB     5        SLPC     H17S     HAL2     0.900000E-01   1.00800           0
       448 MEMB     5        SLPC     C218     CTL3    -0.270000       12.0110           0
       449 MEMB     5        SLPC     H18R     HAL3     0.900000E-01   1.00800           0
       450 MEMB     5        SLPC     H18S     HAL3     0.900000E-01   1.00800           0
       451 MEMB     5        SLPC     H18T     HAL3     0.900000E-01   1.00800           0
       452 MEMB     5        SLPC     C33      CTL2    -0.180000       12.0110           0
       453 MEMB     5        SLPC     H3X      HAL2     0.900000E-01   1.00800           0
       454 MEMB     5        SLPC     H3Y      HAL2     0.900000E-01   1.00800           0
       455 MEMB     5        SLPC     C34      CTL2    -0.180000       12.0110           0
       456 MEMB     5        SLPC     H4X      HAL2     0.900000E-01   1.00800           0
       457 MEMB     5        SLPC     H4Y      HAL2     0.900000E-01   1.00800           0
       458 MEMB     5        SLPC     C35      CTL2    -0.180000       12.0110           0
       459 MEMB     5        SLPC     H5X      HAL2     0.900000E-01   1.00800           0
       460 MEMB     5        SLPC     H5Y      HAL2     0.900000E-01   1.00800           0
       461 MEMB     5        SLPC     C36      CTL2    -0.180000       12.0110           0
       462 MEMB     5        SLPC     H6X      HAL2     0.900000E-01   1.00800           0
       463 MEMB     5        SLPC     H6Y      HAL2     0.900000E-01   1.00800           0
       464 MEMB     5        SLPC     C37      CTL2    -0.180000       12.0110           0
       465 MEMB     5        SLPC     H7X      HAL2     0.900000E-01   1.00800           0
       466 MEMB     5        SLPC     H7Y      HAL2     0.900000E-01   1.00800           0
       467 MEMB     5        SLPC     C38      CTL2    -0.180000       12.0110           0
       468 MEMB     5        SLPC     H8X      HAL2     0.900000E-01   1.00800           0
       469 MEMB     5        SLPC     H8Y      HAL2     0.900000E-01   1.00800           0
       470 MEMB     5        SLPC     C39      CTL2    -0.180000       12.0110           0
       471 MEMB     5        SLPC     H9X      HAL2     0.900000E-01   1.00800           0
       472 MEMB     5        SLPC     H9Y      HAL2     0.900000E-01   1.00800           0
       473 MEMB     5        SLPC     C310     CTL2    -0.180000       12.0110           0
       474 MEMB     5        SLPC     H10X     HAL2     0.900000E-01   1.00800           0
       475 MEMB     5        SLPC     H10Y     HAL2     0.900000E-01   1.00800           0
       476 MEMB     5        SLPC     C311     CTL2    -0.180000       12.0110           0
       477 MEMB     5        SLPC     H11X     HAL2     0.900000E-01   1.00800           0
       478 MEMB     5        SLPC     H11Y     HAL2     0.900000E-01   1.00800           0
       479 MEMB     5        SLPC     C312     CTL2    -0.180000       12.0110           0
       480 MEMB     5        SLPC     H12X     HAL2     0.900000E-01   1.00800           0
       481 MEMB     5        SLPC     H12Y     HAL2     0.900000E-01   1.00800           0
       482 MEMB     5        SLPC     C313     CTL2    -0.180000       12.0110           0
       483 MEMB     5        SLPC     H13X     HAL2     0.900000E-01   1.00800           0
       484 MEMB     5        SLPC     H13Y     HAL2     0.900000E-01   1.00800           0
       485 MEMB     5        SLPC     C314     CTL2    -0.180000       12.0110           0
       486 MEMB     5        SLPC     H14X     HAL2     0.900000E-01   1.00800           0
       487 MEMB     5        SLPC     H14Y     HAL2     0.900000E-01   1.00800           0
       488 MEMB     5        SLPC     C315     CTL2    -0.180000       12.0110           0
       489 MEMB     5        SLPC     H15X     HAL2     0.900000E-01   1.00800           0
       490 MEMB     5        SLPC     H15Y     HAL2     0.900000E-01   1.00800           0
       491 MEMB     5        SLPC     C316     CTL2    -0.180000       12.0110           0
       492 MEMB     5        SLPC     H16X     HAL2     0.900000E-01   1.00800           0
       493 MEMB     5        SLPC     H16Y     HAL2     0.900000E-01   1.00800           0
       494 MEMB     5        SLPC     C317     CTL2    -0.180000       12.0110           0
       495 MEMB     5        SLPC     H17X     HAL2     0.900000E-01   1.00800           0
       496 MEMB     5        SLPC     H17Y     HAL2     0.900000E-01   1.00800           0
       497 MEMB     5        SLPC     C318     CTL3    -0.270000       12.0110           0
       498 MEMB     5        SLPC     H18X     HAL3     0.900000E-01   1.00800           0
       499 MEMB     5        SLPC     H18Y     HAL3     0.900000E-01   1.00800           0
       500 MEMB     5        SLPC     H18Z     HAL3     0.900000E-01   1.00800           0
       501 MEMB     6        CHL1     C3       CRL1     0.140000       12.0110           0
       502 MEMB     6        CHL1     H3       HGA1     0.900000E-01   1.00800           0
       503 MEMB     6        CHL1     O3       OHL     -0.660000       15.9994           0
       504 MEMB     6        CHL1     H3'      HOL      0.430000       1.00800           0
       505 MEMB     6        CHL1     C4       CRL2    -0.180000       12.0110           0
       506 MEMB     6        CHL1     H4A      HGA2     0.900000E-01   1.00800           0
       507 MEMB     6        CHL1     H4B      HGA2     0.900000E-01   1.00800           0
       508 MEMB     6        CHL1     C5       CEL1      0.00000       12.0110           0
       509 MEMB     6        CHL1     C6       CEL1    -0.150000       12.0110           0
       510 MEMB     6        CHL1     H6       HEL1     0.150000       1.00800           0
       511 MEMB     6        CHL1     C7       CRL2    -0.180000       12.0110           0
       512 MEMB     6        CHL1     H7A      HGA2     0.900000E-01   1.00800           0
       513 MEMB     6        CHL1     H7B      HGA2     0.900000E-01   1.00800           0
       514 MEMB     6        CHL1     C8       CRL1    -0.900000E-01   12.0110           0
       515 MEMB     6        CHL1     H8       HGA1     0.900000E-01   1.00800           0
       516 MEMB     6        CHL1     C14      CRL1    -0.900000E-01   12.0110           0
       517 MEMB     6        CHL1     H14      HGA1     0.900000E-01   1.00800           0
       518 MEMB     6        CHL1     C15      CRL2    -0.180000       12.0110           0
       519 MEMB     6        CHL1     H15A     HGA2     0.900000E-01   1.00800           0
       520 MEMB     6        CHL1     H15B     HGA2     0.900000E-01   1.00800           0
       521 MEMB     6        CHL1     C16      CRL2    -0.180000       12.0110           0
       522 MEMB     6        CHL1     H16A     HGA2     0.900000E-01   1.00800           0
       523 MEMB     6        CHL1     H16B     HGA2     0.900000E-01   1.00800           0
       524 MEMB     6        CHL1     C17      CRL1    -0.900000E-01   12.0110           0
       525 MEMB     6        CHL1     H17      HGA1     0.900000E-01   1.00800           0
       526 MEMB     6        CHL1     C13      CRL1      0.00000       12.0110           0
       527 MEMB     6        CHL1     C18      CTL3    -0.270000       12.0110           0
       528 MEMB     6        CHL1     H18A     HAL3     0.900000E-01   1.00800           0
       529 MEMB     6        CHL1     H18B     HAL3     0.900000E-01   1.00800           0
       530 MEMB     6        CHL1     H18C     HAL3     0.900000E-01   1.00800           0
       531 MEMB     6        CHL1     C12      CRL2    -0.180000       12.0110           0
       532 MEMB     6        CHL1     H12A     HGA2     0.900000E-01   1.00800           0
       533 MEMB     6        CHL1     H12B     HGA2     0.900000E-01   1.00800           0
       534 MEMB     6        CHL1     C11      CRL2    -0.180000       12.0110           0
       535 MEMB     6        CHL1     H11A     HGA2     0.900000E-01   1.00800           0
       536 MEMB     6        CHL1     H11B     HGA2     0.900000E-01   1.00800           0
       537 MEMB     6        CHL1     C9       CRL1    -0.900000E-01   12.0110           0
       538 MEMB     6        CHL1     H9       HGA1     0.900000E-01   1.00800           0
       539 MEMB     6        CHL1     C10      CRL1      0.00000       12.0110           0
       540 MEMB     6        CHL1     C19      CTL3    -0.270000       12.0110           0
       541 MEMB     6        CHL1     H19A     HAL3     0.900000E-01   1.00800           0
       542 MEMB     6        CHL1     H19B     HAL3     0.900000E-01   1.00800           0
       543 MEMB     6        CHL1     H19C     HAL3     0.900000E-01   1.00800           0
       544 MEMB     6        CHL1     C1       CRL2    -0.180000       12.0110           0
       545 MEMB     6        CHL1     H1A      HGA2     0.900000E-01   1.00800           0
       546 MEMB     6        CHL1     H1B      HGA2     0.900000E-01   1.00800           0
       547 MEMB     6        CHL1     C2       CRL2    -0.180000       12.0110           0
       548 MEMB     6        CHL1     H2A      HGA2     0.900000E-01   1.00800           0
       549 MEMB     6        CHL1     H2B      HGA2     0.900000E-01   1.00800           0
       550 MEMB     6        CHL1     C20      CTL1    -0.900000E-01   12.0110           0
       551 MEMB     6        CHL1     H20      HAL1     0.900000E-01   1.00800           0
       552 MEMB     6        CHL1     C21      CTL3    -0.270000       12.0110           0
       553 MEMB     6        CHL1     H21A     HAL3     0.900000E-01   1.00800           0
       554 MEMB     6        CHL1     H21B     HAL3     0.900000E-01   1.00800           0
       555 MEMB     6        CHL1     H21C     HAL3     0.900000E-01   1.00800           0
       556 MEMB     6        CHL1     C22      CTL2    -0.180000       12.0110           0
       557 MEMB     6        CHL1     H22A     HAL2     0.900000E-01   1.00800           0
       558 MEMB     6        CHL1     H22B     HAL2     0.900000E-01   1.00800           0
       559 MEMB     6        CHL1     C23      CTL2    -0.180000       12.0110           0
       560 MEMB     6        CHL1     H23A     HAL2     0.900000E-01   1.00800           0
       561 MEMB     6        CHL1     H23B     HAL2     0.900000E-01   1.00800           0
       562 MEMB     6        CHL1     C24      CTL2    -0.180000       12.0110           0
       563 MEMB     6        CHL1     H24A     HAL2     0.900000E-01   1.00800           0
       564 MEMB     6        CHL1     H24B     HAL2     0.900000E-01   1.00800           0
       565 MEMB     6        CHL1     C25      CTL1    -0.900000E-01   12.0110           0
       566 MEMB     6        CHL1     H25      HAL1     0.900000E-01   1.00800           0
       567 MEMB     6        CHL1     C26      CTL3    -0.270000       12.0110           0
       568 MEMB     6        CHL1     H26A     HAL3     0.900000E-01   1.00800           0
       569 MEMB     6        CHL1     H26B     HAL3     0.900000E-01   1.00800           0
       570 MEMB     6        CHL1     H26C     HAL3     0.900000E-01   1.00800           0
       571 MEMB     6        CHL1     C27      CTL3    -0.270000       12.0110           0
       572 MEMB     6        CHL1     H27A     HAL3     0.900000E-01   1.00800           0
       573 MEMB     6        CHL1     H27B     HAL3     0.900000E-01   1.00800           0
       574 MEMB     6        CHL1     H27C     HAL3     0.900000E-01   1.00800           0
       575 MEMB     7        SAPE     N        NH3L    -0.300000       14.0070           0
       576 MEMB     7        SAPE     HN1      HCL      0.330000       1.00800           0
       577 MEMB     7        SAPE     HN2      HCL      0.330000       1.00800           0
       578 MEMB     7        SAPE     HN3      HCL      0.330000       1.00800           0
       579 MEMB     7        SAPE     C12      CTL2     0.130000       12.0110           0
       580 MEMB     7        SAPE     H12A     HAL2     0.900000E-01   1.00800           0
       581 MEMB     7        SAPE     H12B     HAL2     0.900000E-01   1.00800           0
       582 MEMB     7        SAPE     C11      CTL2    -0.800000E-01   12.0110           0
       583 MEMB     7        SAPE     H11A     HAL2     0.900000E-01   1.00800           0
       584 MEMB     7        SAPE     H11B     HAL2     0.900000E-01   1.00800           0
       585 MEMB     7        SAPE     P        PL        1.50000       30.9740           0
       586 MEMB     7        SAPE     O13      O2L     -0.780000       15.9994           0
       587 MEMB     7        SAPE     O14      O2L     -0.780000       15.9994           0
       588 MEMB     7        SAPE     O12      OSLP    -0.570000       15.9994           0
       589 MEMB     7        SAPE     O11      OSLP    -0.570000       15.9994           0
       590 MEMB     7        SAPE     C1       CTL2    -0.800000E-01   12.0110           0
       591 MEMB     7        SAPE     HA       HAL2     0.900000E-01   1.00800           0
       592 MEMB     7        SAPE     HB       HAL2     0.900000E-01   1.00800           0
       593 MEMB     7        SAPE     C2       CTL1     0.170000       12.0110           0
       594 MEMB     7        SAPE     HS       HAL1     0.900000E-01   1.00800           0
       595 MEMB     7        SAPE     O21      OSL     -0.490000       15.9994           0
       596 MEMB     7        SAPE     C21      CL       0.900000       12.0110           0
       597 MEMB     7        SAPE     O22      OBL     -0.630000       15.9994           0
       598 MEMB     7        SAPE     C22      CTL2    -0.220000       12.0110           0
       599 MEMB     7        SAPE     H2R      HAL2     0.900000E-01   1.00800           0
       600 MEMB     7        SAPE     H2S      HAL2     0.900000E-01   1.00800           0
       601 MEMB     7        SAPE     C3       CTL2     0.800000E-01   12.0110           0
       602 MEMB     7        SAPE     HX       HAL2     0.900000E-01   1.00800           0
       603 MEMB     7        SAPE     HY       HAL2     0.900000E-01   1.00800           0
       604 MEMB     7        SAPE     O31      OSL     -0.490000       15.9994           0
       605 MEMB     7        SAPE     C31      CL       0.900000       12.0110           0
       606 MEMB     7        SAPE     O32      OBL     -0.630000       15.9994           0
       607 MEMB     7        SAPE     C32      CTL2    -0.220000       12.0110           0
       608 MEMB     7        SAPE     H2X      HAL2     0.900000E-01   1.00800           0
       609 MEMB     7        SAPE     H2Y      HAL2     0.900000E-01   1.00800           0
       610 MEMB     7        SAPE     C23      CTL2    -0.180000       12.0110           0
       611 MEMB     7        SAPE     H3R      HAL2     0.900000E-01   1.00800           0
       612 MEMB     7        SAPE     H3S      HAL2     0.900000E-01   1.00800           0
       613 MEMB     7        SAPE     C24      CTL2    -0.180000       12.0110           0
       614 MEMB     7        SAPE     H4R      HAL2     0.900000E-01   1.00800           0
       615 MEMB     7        SAPE     H4S      HAL2     0.900000E-01   1.00800           0
       616 MEMB     7        SAPE     C25      CEL1    -0.150000       12.0110           0
       617 MEMB     7        SAPE     H5R      HEL1     0.150000       1.00800           0
       618 MEMB     7        SAPE     C26      CEL1    -0.150000       12.0110           0
       619 MEMB     7        SAPE     H6R      HEL1     0.150000       1.00800           0
       620 MEMB     7        SAPE     C27      CTL2    -0.180000       12.0110           0
       621 MEMB     7        SAPE     H7R      HAL2     0.900000E-01   1.00800           0
       622 MEMB     7        SAPE     H7S      HAL2     0.900000E-01   1.00800           0
       623 MEMB     7        SAPE     C28      CEL1    -0.150000       12.0110           0
       624 MEMB     7        SAPE     H8R      HEL1     0.150000       1.00800           0
       625 MEMB     7        SAPE     C29      CEL1    -0.150000       12.0110           0
       626 MEMB     7        SAPE     H9R      HEL1     0.150000       1.00800           0
       627 MEMB     7        SAPE     C210     CTL2    -0.180000       12.0110           0
       628 MEMB     7        SAPE     H10R     HAL2     0.900000E-01   1.00800           0
       629 MEMB     7        SAPE     H10S     HAL2     0.900000E-01   1.00800           0
       630 MEMB     7        SAPE     C211     CEL1    -0.150000       12.0110           0
       631 MEMB     7        SAPE     H11R     HEL1     0.150000       1.00800           0
       632 MEMB     7        SAPE     C212     CEL1    -0.150000       12.0110           0
       633 MEMB     7        SAPE     H12R     HEL1     0.150000       1.00800           0
       634 MEMB     7        SAPE     C213     CTL2    -0.180000       12.0110           0
       635 MEMB     7        SAPE     H13R     HAL2     0.900000E-01   1.00800           0
       636 MEMB     7        SAPE     H13S     HAL2     0.900000E-01   1.00800           0
       637 MEMB     7        SAPE     C214     CEL1    -0.150000       12.0110           0
       638 MEMB     7        SAPE     H14R     HEL1     0.150000       1.00800           0
       639 MEMB     7        SAPE     C215     CEL1    -0.150000       12.0110           0
       640 MEMB     7        SAPE     H15R     HEL1     0.150000       1.00800           0
       641 MEMB     7        SAPE     C216     CTL2    -0.180000       12.0110           0
       642 MEMB     7        SAPE     H16R     HAL2     0.900000E-01   1.00800           0
       643 MEMB     7        SAPE     H16S     HAL2     0.900000E-01   1.00800           0
       644 MEMB     7        SAPE     C217     CTL2    -0.180000       12.0110           0
       645 MEMB     7        SAPE     H17R     HAL2     0.900000E-01   1.00800           0
       646 MEMB     7        SAPE     H17S     HAL2     0.900000E-01   1.00800           0
       647 MEMB     7        SAPE     C218     CTL2    -0.180000       12.0110           0
       648 MEMB     7        SAPE     H18R     HAL2     0.900000E-01   1.00800           0
       649 MEMB     7        SAPE     H18S     HAL2     0.900000E-01   1.00800           0
       650 MEMB     7        SAPE     C219     CTL2    -0.180000       12.0110           0
       651 MEMB     7        SAPE     H19R     HAL2     0.900000E-01   1.00800           0
       652 MEMB     7        SAPE     H19S     HAL2     0.900000E-01   1.00800           0
       653 MEMB     7        SAPE     C220     CTL3    -0.270000       12.0110           0
       654 MEMB     7        SAPE     H20R     HAL3     0.900000E-01   1.00800           0
       655 MEMB     7        SAPE     H20S     HAL3     0.900000E-01   1.00800           0
       656 MEMB     7        SAPE     H20T     HAL3     0.900000E-01   1.00800           0
       657 MEMB     7        SAPE     C33      CTL2    -0.180000       12.0110           0
       658 MEMB     7        SAPE     H3X      HAL2     0.900000E-01   1.00800           0
       659 MEMB     7        SAPE     H3Y      HAL2     0.900000E-01   1.00800           0
       660 MEMB     7        SAPE     C34      CTL2    -0.180000       12.0110           0
       661 MEMB     7        SAPE     H4X      HAL2     0.900000E-01   1.00800           0
       662 MEMB     7        SAPE     H4Y      HAL2     0.900000E-01   1.00800           0
       663 MEMB     7        SAPE     C35      CTL2    -0.180000       12.0110           0
       664 MEMB     7        SAPE     H5X      HAL2     0.900000E-01   1.00800           0
       665 MEMB     7        SAPE     H5Y      HAL2     0.900000E-01   1.00800           0
       666 MEMB     7        SAPE     C36      CTL2    -0.180000       12.0110           0
       667 MEMB     7        SAPE     H6X      HAL2     0.900000E-01   1.00800           0
       668 MEMB     7        SAPE     H6Y      HAL2     0.900000E-01   1.00800           0
       669 MEMB     7        SAPE     C37      CTL2    -0.180000       12.0110           0
       670 MEMB     7        SAPE     H7X      HAL2     0.900000E-01   1.00800           0
       671 MEMB     7        SAPE     H7Y      HAL2     0.900000E-01   1.00800           0
       672 MEMB     7        SAPE     C38      CTL2    -0.180000       12.0110           0
       673 MEMB     7        SAPE     H8X      HAL2     0.900000E-01   1.00800           0
       674 MEMB     7        SAPE     H8Y      HAL2     0.900000E-01   1.00800           0
       675 MEMB     7        SAPE     C39      CTL2    -0.180000       12.0110           0
       676 MEMB     7        SAPE     H9X      HAL2     0.900000E-01   1.00800           0
       677 MEMB     7        SAPE     H9Y      HAL2     0.900000E-01   1.00800           0
       678 MEMB     7        SAPE     C310     CTL2    -0.180000       12.0110           0
       679 MEMB     7        SAPE     H10X     HAL2     0.900000E-01   1.00800           0
       680 MEMB     7        SAPE     H10Y     HAL2     0.900000E-01   1.00800           0
       681 MEMB     7        SAPE     C311     CTL2    -0.180000       12.0110           0
       682 MEMB     7        SAPE     H11X     HAL2     0.900000E-01   1.00800           0
       683 MEMB     7        SAPE     H11Y     HAL2     0.900000E-01   1.00800           0
       684 MEMB     7        SAPE     C312     CTL2    -0.180000       12.0110           0
       685 MEMB     7        SAPE     H12X     HAL2     0.900000E-01   1.00800           0
       686 MEMB     7        SAPE     H12Y     HAL2     0.900000E-01   1.00800           0
       687 MEMB     7        SAPE     C313     CTL2    -0.180000       12.0110           0
       688 MEMB     7        SAPE     H13X     HAL2     0.900000E-01   1.00800           0
       689 MEMB     7        SAPE     H13Y     HAL2     0.900000E-01   1.00800           0
       690 MEMB     7        SAPE     C314     CTL2    -0.180000       12.0110           0
       691 MEMB     7        SAPE     H14X     HAL2     0.900000E-01   1.00800           0
       692 MEMB     7        SAPE     H14Y     HAL2     0.900000E-01   1.00800           0
       693 MEMB     7        SAPE     C315     CTL2    -0.180000       12.0110           0
       694 MEMB     7        SAPE     H15X     HAL2     0.900000E-01   1.00800           0
       695 MEMB     7        SAPE     H15Y     HAL2     0.900000E-01   1.00800           0
       696 MEMB     7        SAPE     C316     CTL2    -0.180000       12.0110           0
       697 MEMB     7        SAPE     H16X     HAL2     0.900000E-01   1.00800           0
       698 MEMB     7        SAPE     H16Y     HAL2     0.900000E-01   1.00800           0
       699 MEMB     7        SAPE     C317     CTL2    -0.180000       12.0110           0
       700 MEMB     7        SAPE     H17X     HAL2     0.900000E-01   1.00800           0
       701 MEMB     7        SAPE     H17Y     HAL2     0.900000E-01   1.00800           0
       702 MEMB     7        SAPE     C318     CTL3    -0.270000       12.0110           0
       703 MEMB     7        SAPE     H18X     HAL3     0.900000E-01   1.00800           0
       704 MEMB     7        SAPE     H18Y     HAL3     0.900000E-01   1.00800           0
       705 MEMB     7        SAPE     H18Z     HAL3     0.900000E-01   1.00800           0
       706 MEMB     8        SOPE     N        NH3L    -0.300000       14.0070           0
       707 MEMB     8        SOPE     HN1      HCL      0.330000       1.00800           0
       708 MEMB     8        SOPE     HN2      HCL      0.330000       1.00800           0
       709 MEMB     8        SOPE     HN3      HCL      0.330000       1.00800           0
       710 MEMB     8        SOPE     C12      CTL2     0.130000       12.0110           0
       711 MEMB     8        SOPE     H12A     HAL2     0.900000E-01   1.00800           0
       712 MEMB     8        SOPE     H12B     HAL2     0.900000E-01   1.00800           0
       713 MEMB     8        SOPE     C11      CTL2    -0.800000E-01   12.0110           0
       714 MEMB     8        SOPE     H11A     HAL2     0.900000E-01   1.00800           0
       715 MEMB     8        SOPE     H11B     HAL2     0.900000E-01   1.00800           0
       716 MEMB     8        SOPE     P        PL        1.50000       30.9740           0
       717 MEMB     8        SOPE     O13      O2L     -0.780000       15.9994           0
       718 MEMB     8        SOPE     O14      O2L     -0.780000       15.9994           0
       719 MEMB     8        SOPE     O12      OSLP    -0.570000       15.9994           0
       720 MEMB     8        SOPE     O11      OSLP    -0.570000       15.9994           0
       721 MEMB     8        SOPE     C1       CTL2    -0.800000E-01   12.0110           0
       722 MEMB     8        SOPE     HA       HAL2     0.900000E-01   1.00800           0
       723 MEMB     8        SOPE     HB       HAL2     0.900000E-01   1.00800           0
       724 MEMB     8        SOPE     C2       CTL1     0.170000       12.0110           0
       725 MEMB     8        SOPE     HS       HAL1     0.900000E-01   1.00800           0
       726 MEMB     8        SOPE     O21      OSL     -0.490000       15.9994           0
       727 MEMB     8        SOPE     C21      CL       0.900000       12.0110           0
       728 MEMB     8        SOPE     O22      OBL     -0.630000       15.9994           0
       729 MEMB     8        SOPE     C22      CTL2    -0.220000       12.0110           0
       730 MEMB     8        SOPE     H2R      HAL2     0.900000E-01   1.00800           0
       731 MEMB     8        SOPE     H2S      HAL2     0.900000E-01   1.00800           0
       732 MEMB     8        SOPE     C3       CTL2     0.800000E-01   12.0110           0
       733 MEMB     8        SOPE     HX       HAL2     0.900000E-01   1.00800           0
       734 MEMB     8        SOPE     HY       HAL2     0.900000E-01   1.00800           0
       735 MEMB     8        SOPE     O31      OSL     -0.490000       15.9994           0
       736 MEMB     8        SOPE     C31      CL       0.900000       12.0110           0
       737 MEMB     8        SOPE     O32      OBL     -0.630000       15.9994           0
       738 MEMB     8        SOPE     C32      CTL2    -0.220000       12.0110           0
       739 MEMB     8        SOPE     H2X      HAL2     0.900000E-01   1.00800           0
       740 MEMB     8        SOPE     H2Y      HAL2     0.900000E-01   1.00800           0
       741 MEMB     8        SOPE     C23      CTL2    -0.180000       12.0110           0
       742 MEMB     8        SOPE     H3R      HAL2     0.900000E-01   1.00800           0
       743 MEMB     8        SOPE     H3S      HAL2     0.900000E-01   1.00800           0
       744 MEMB     8        SOPE     C24      CTL2    -0.180000       12.0110           0
       745 MEMB     8        SOPE     H4R      HAL2     0.900000E-01   1.00800           0
       746 MEMB     8        SOPE     H4S      HAL2     0.900000E-01   1.00800           0
       747 MEMB     8        SOPE     C25      CTL2    -0.180000       12.0110           0
       748 MEMB     8        SOPE     H5R      HAL2     0.900000E-01   1.00800           0
       749 MEMB     8        SOPE     H5S      HAL2     0.900000E-01   1.00800           0
       750 MEMB     8        SOPE     C26      CTL2    -0.180000       12.0110           0
       751 MEMB     8        SOPE     H6R      HAL2     0.900000E-01   1.00800           0
       752 MEMB     8        SOPE     H6S      HAL2     0.900000E-01   1.00800           0
       753 MEMB     8        SOPE     C27      CTL2    -0.180000       12.0110           0
       754 MEMB     8        SOPE     H7R      HAL2     0.900000E-01   1.00800           0
       755 MEMB     8        SOPE     H7S      HAL2     0.900000E-01   1.00800           0
       756 MEMB     8        SOPE     C28      CTL2    -0.180000       12.0110           0
       757 MEMB     8        SOPE     H8R      HAL2     0.900000E-01   1.00800           0
       758 MEMB     8        SOPE     H8S      HAL2     0.900000E-01   1.00800           0
       759 MEMB     8        SOPE     C29      CEL1    -0.150000       12.0110           0
       760 MEMB     8        SOPE     H91      HEL1     0.150000       1.00800           0
       761 MEMB     8        SOPE     C210     CEL1    -0.150000       12.0110           0
       762 MEMB     8        SOPE     H101     HEL1     0.150000       1.00800           0
       763 MEMB     8        SOPE     C211     CTL2    -0.180000       12.0110           0
       764 MEMB     8        SOPE     H11R     HAL2     0.900000E-01   1.00800           0
       765 MEMB     8        SOPE     H11S     HAL2     0.900000E-01   1.00800           0
       766 MEMB     8        SOPE     C212     CTL2    -0.180000       12.0110           0
       767 MEMB     8        SOPE     H12R     HAL2     0.900000E-01   1.00800           0
       768 MEMB     8        SOPE     H12S     HAL2     0.900000E-01   1.00800           0
       769 MEMB     8        SOPE     C213     CTL2    -0.180000       12.0110           0
       770 MEMB     8        SOPE     H13R     HAL2     0.900000E-01   1.00800           0
       771 MEMB     8        SOPE     H13S     HAL2     0.900000E-01   1.00800           0
       772 MEMB     8        SOPE     C214     CTL2    -0.180000       12.0110           0
       773 MEMB     8        SOPE     H14R     HAL2     0.900000E-01   1.00800           0
       774 MEMB     8        SOPE     H14S     HAL2     0.900000E-01   1.00800           0
       775 MEMB     8        SOPE     C215     CTL2    -0.180000       12.0110           0
       776 MEMB     8        SOPE     H15R     HAL2     0.900000E-01   1.00800           0
       777 MEMB     8        SOPE     H15S     HAL2     0.900000E-01   1.00800           0
       778 MEMB     8        SOPE     C216     CTL2    -0.180000       12.0110           0
       779 MEMB     8        SOPE     H16R     HAL2     0.900000E-01   1.00800           0
       780 MEMB     8        SOPE     H16S     HAL2     0.900000E-01   1.00800           0
       781 MEMB     8        SOPE     C217     CTL2    -0.180000       12.0110           0
       782 MEMB     8        SOPE     H17R     HAL2     0.900000E-01   1.00800           0
       783 MEMB     8        SOPE     H17S     HAL2     0.900000E-01   1.00800           0
       784 MEMB     8        SOPE     C218     CTL3    -0.270000       12.0110           0
       785 MEMB     8        SOPE     H18R     HAL3     0.900000E-01   1.00800           0
       786 MEMB     8        SOPE     H18S     HAL3     0.900000E-01   1.00800           0
       787 MEMB     8        SOPE     H18T     HAL3     0.900000E-01   1.00800           0
       788 MEMB     8        SOPE     C33      CTL2    -0.180000       12.0110           0
       789 MEMB     8        SOPE     H3X      HAL2     0.900000E-01   1.00800           0
       790 MEMB     8        SOPE     H3Y      HAL2     0.900000E-01   1.00800           0
       791 MEMB     8        SOPE     C34      CTL2    -0.180000       12.0110           0
       792 MEMB     8        SOPE     H4X      HAL2     0.900000E-01   1.00800           0
       793 MEMB     8        SOPE     H4Y      HAL2     0.900000E-01   1.00800           0
       794 MEMB     8        SOPE     C35      CTL2    -0.180000       12.0110           0
       795 MEMB     8        SOPE     H5X      HAL2     0.900000E-01   1.00800           0
       796 MEMB     8        SOPE     H5Y      HAL2     0.900000E-01   1.00800           0
       797 MEMB     8        SOPE     C36      CTL2    -0.180000       12.0110           0
       798 MEMB     8        SOPE     H6X      HAL2     0.900000E-01   1.00800           0
       799 MEMB     8        SOPE     H6Y      HAL2     0.900000E-01   1.00800           0
       800 MEMB     8        SOPE     C37      CTL2    -0.180000       12.0110           0
       801 MEMB     8        SOPE     H7X      HAL2     0.900000E-01   1.00800           0
       802 MEMB     8        SOPE     H7Y      HAL2     0.900000E-01   1.00800           0
       803 MEMB     8        SOPE     C38      CTL2    -0.180000       12.0110           0
       804 MEMB     8        SOPE     H8X      HAL2     0.900000E-01   1.00800           0
       805 MEMB     8        SOPE     H8Y      HAL2     0.900000E-01   1.00800           0
       806 MEMB     8        SOPE     C39      CTL2    -0.180000       12.0110           0
       807 MEMB     8        SOPE     H9X      HAL2     0.900000E-01   1.00800           0
       808 MEMB     8        SOPE     H9Y      HAL2     0.900000E-01   1.00800           0
       809 MEMB     8        SOPE     C310     CTL2    -0.180000       12.0110           0
       810 MEMB     8        SOPE     H10X     HAL2     0.900000E-01   1.00800           0
       811 MEMB     8        SOPE     H10Y     HAL2     0.900000E-01   1.00800           0
       812 MEMB     8        SOPE     C311     CTL2    -0.180000       12.0110           0
       813 MEMB     8        SOPE     H11X     HAL2     0.900000E-01   1.00800           0
       814 MEMB     8        SOPE     H11Y     HAL2     0.900000E-01   1.00800           0
       815 MEMB     8        SOPE     C312     CTL2    -0.180000       12.0110           0
       816 MEMB     8        SOPE     H12X     HAL2     0.900000E-01   1.00800           0
       817 MEMB     8        SOPE     H12Y     HAL2     0.900000E-01   1.00800           0
       818 MEMB     8        SOPE     C313     CTL2    -0.180000       12.0110           0
       819 MEMB     8        SOPE     H13X     HAL2     0.900000E-01   1.00800           0
       820 MEMB     8        SOPE     H13Y     HAL2     0.900000E-01   1.00800           0
       821 MEMB     8        SOPE     C314     CTL2    -0.180000       12.0110           0
       822 MEMB     8        SOPE     H14X     HAL2     0.900000E-01   1.00800           0
       823 MEMB     8        SOPE     H14Y     HAL2     0.900000E-01   1.00800           0
       824 MEMB     8        SOPE     C315     CTL2    -0.180000       12.0110           0
       825 MEMB     8        SOPE     H15X     HAL2     0.900000E-01   1.00800           0
       826 MEMB     8        SOPE     H15Y     HAL2     0.900000E-01   1.00800           0
       827 MEMB     8        SOPE     C316     CTL2    -0.180000       12.0110           0
       828 MEMB     8        SOPE     H16X     HAL2     0.900000E-01   1.00800           0
       829 MEMB     8        SOPE     H16Y     HAL2     0.900000E-01   1.00800           0
       830 MEMB     8        SOPE     C317     CTL2    -0.180000       12.0110           0
       831 MEMB     8        SOPE     H17X     HAL2     0.900000E-01   1.00800           0
       832 MEMB     8        SOPE     H17Y     HAL2     0.900000E-01   1.00800           0
       833 MEMB     8        SOPE     C318     CTL3    -0.270000       12.0110           0
       834 MEMB     8        SOPE     H18X     HAL3     0.900000E-01   1.00800           0
       835 MEMB     8        SOPE     H18Y     HAL3     0.900000E-01   1.00800           0
       836 MEMB     8        SOPE     H18Z     HAL3     0.900000E-01   1.00800           0
       837 MEMB     9        CHL1     C3       CRL1     0.140000       12.0110           0
       838 MEMB     9        CHL1     H3       HGA1     0.900000E-01   1.00800           0
       839 MEMB     9        CHL1     O3       OHL     -0.660000       15.9994           0
       840 MEMB     9        CHL1     H3'      HOL      0.430000       1.00800           0
       841 MEMB     9        CHL1     C4       CRL2    -0.180000       12.0110           0
       842 MEMB     9        CHL1     H4A      HGA2     0.900000E-01   1.00800           0
       843 MEMB     9        CHL1     H4B      HGA2     0.900000E-01   1.00800           0
       844 MEMB     9        CHL1     C5       CEL1      0.00000       12.0110           0
       845 MEMB     9        CHL1     C6       CEL1    -0.150000       12.0110           0
       846 MEMB     9        CHL1     H6       HEL1     0.150000       1.00800           0
       847 MEMB     9        CHL1     C7       CRL2    -0.180000       12.0110           0
       848 MEMB     9        CHL1     H7A      HGA2     0.900000E-01   1.00800           0
       849 MEMB     9        CHL1     H7B      HGA2     0.900000E-01   1.00800           0
       850 MEMB     9        CHL1     C8       CRL1    -0.900000E-01   12.0110           0
       851 MEMB     9        CHL1     H8       HGA1     0.900000E-01   1.00800           0
       852 MEMB     9        CHL1     C14      CRL1    -0.900000E-01   12.0110           0
       853 MEMB     9        CHL1     H14      HGA1     0.900000E-01   1.00800           0
       854 MEMB     9        CHL1     C15      CRL2    -0.180000       12.0110           0
       855 MEMB     9        CHL1     H15A     HGA2     0.900000E-01   1.00800           0
       856 MEMB     9        CHL1     H15B     HGA2     0.900000E-01   1.00800           0
       857 MEMB     9        CHL1     C16      CRL2    -0.180000       12.0110           0
       858 MEMB     9        CHL1     H16A     HGA2     0.900000E-01   1.00800           0
       859 MEMB     9        CHL1     H16B     HGA2     0.900000E-01   1.00800           0
       860 MEMB     9        CHL1     C17      CRL1    -0.900000E-01   12.0110           0
       861 MEMB     9        CHL1     H17      HGA1     0.900000E-01   1.00800           0
       862 MEMB     9        CHL1     C13      CRL1      0.00000       12.0110           0
       863 MEMB     9        CHL1     C18      CTL3    -0.270000       12.0110           0
       864 MEMB     9        CHL1     H18A     HAL3     0.900000E-01   1.00800           0
       865 MEMB     9        CHL1     H18B     HAL3     0.900000E-01   1.00800           0
       866 MEMB     9        CHL1     H18C     HAL3     0.900000E-01   1.00800           0
       867 MEMB     9        CHL1     C12      CRL2    -0.180000       12.0110           0
       868 MEMB     9        CHL1     H12A     HGA2     0.900000E-01   1.00800           0
       869 MEMB     9        CHL1     H12B     HGA2     0.900000E-01   1.00800           0
       870 MEMB     9        CHL1     C11      CRL2    -0.180000       12.0110           0
       871 MEMB     9        CHL1     H11A     HGA2     0.900000E-01   1.00800           0
       872 MEMB     9        CHL1     H11B     HGA2     0.900000E-01   1.00800           0
       873 MEMB     9        CHL1     C9       CRL1    -0.900000E-01   12.0110           0
       874 MEMB     9        CHL1     H9       HGA1     0.900000E-01   1.00800           0
       875 MEMB     9        CHL1     C10      CRL1      0.00000       12.0110           0
       876 MEMB     9        CHL1     C19      CTL3    -0.270000       12.0110           0
       877 MEMB     9        CHL1     H19A     HAL3     0.900000E-01   1.00800           0
       878 MEMB     9        CHL1     H19B     HAL3     0.900000E-01   1.00800           0
       879 MEMB     9        CHL1     H19C     HAL3     0.900000E-01   1.00800           0
       880 MEMB     9        CHL1     C1       CRL2    -0.180000       12.0110           0
       881 MEMB     9        CHL1     H1A      HGA2     0.900000E-01   1.00800           0
       882 MEMB     9        CHL1     H1B      HGA2     0.900000E-01   1.00800           0
       883 MEMB     9        CHL1     C2       CRL2    -0.180000       12.0110           0
       884 MEMB     9        CHL1     H2A      HGA2     0.900000E-01   1.00800           0
       885 MEMB     9        CHL1     H2B      HGA2     0.900000E-01   1.00800           0
       886 MEMB     9        CHL1     C20      CTL1    -0.900000E-01   12.0110           0
       887 MEMB     9        CHL1     H20      HAL1     0.900000E-01   1.00800           0
       888 MEMB     9        CHL1     C21      CTL3    -0.270000       12.0110           0
       889 MEMB     9        CHL1     H21A     HAL3     0.900000E-01   1.00800           0
       890 MEMB     9        CHL1     H21B     HAL3     0.900000E-01   1.00800           0
       891 MEMB     9        CHL1     H21C     HAL3     0.900000E-01   1.00800           0
       892 MEMB     9        CHL1     C22      CTL2    -0.180000       12.0110           0
       893 MEMB     9        CHL1     H22A     HAL2     0.900000E-01   1.00800           0
       894 MEMB     9        CHL1     H22B     HAL2     0.900000E-01   1.00800           0
       895 MEMB     9        CHL1     C23      CTL2    -0.180000       12.0110           0
       896 MEMB     9        CHL1     H23A     HAL2     0.900000E-01   1.00800           0
       897 MEMB     9        CHL1     H23B     HAL2     0.900000E-01   1.00800           0
       898 MEMB     9        CHL1     C24      CTL2    -0.180000       12.0110           0
       899 MEMB     9        CHL1     H24A     HAL2     0.900000E-01   1.00800           0
       900 MEMB     9        CHL1     H24B     HAL2     0.900000E-01   1.00800           0
       901 MEMB     9        CHL1     C25      CTL1    -0.900000E-01   12.0110           0
       902 MEMB     9        CHL1     H25      HAL1     0.900000E-01   1.00800           0
       903 MEMB     9        CHL1     C26      CTL3    -0.270000       12.0110           0
       904 MEMB     9        CHL1     H26A     HAL3     0.900000E-01   1.00800           0
       905 MEMB     9        CHL1     H26B     HAL3     0.900000E-01   1.00800           0
       906 MEMB     9        CHL1     H26C     HAL3     0.900000E-01   1.00800           0
       907 MEMB     9        CHL1     C27      CTL3    -0.270000       12.0110           0
       908 MEMB     9        CHL1     H27A     HAL3     0.900000E-01   1.00800           0
       909 MEMB     9        CHL1     H27B     HAL3     0.900000E-01   1.00800           0
       910 MEMB     9        CHL1     H27C     HAL3     0.900000E-01   1.00800           0
       911 MEMB     10       CHL1     C3       CRL1     0.140000       12.0110           0
       912 MEMB     10       CHL1     H3       HGA1     0.900000E-01   1.00800           0
       913 MEMB     10       CHL1     O3       OHL     -0.660000       15.9994           0
       914 MEMB     10       CHL1     H3'      HOL      0.430000       1.00800           0
       915 MEMB     10       CHL1     C4       CRL2    -0.180000       12.0110           0
       916 MEMB     10       CHL1     H4A      HGA2     0.900000E-01   1.00800           0
       917 MEMB     10       CHL1     H4B      HGA2     0.900000E-01   1.00800           0
       918 MEMB     10       CHL1     C5       CEL1      0.00000       12.0110           0
       919 MEMB     10       CHL1     C6       CEL1    -0.150000       12.0110           0
       920 MEMB     10       CHL1     H6       HEL1     0.150000       1.00800           0
       921 MEMB     10       CHL1     C7       CRL2    -0.180000       12.0110           0
       922 MEMB     10       CHL1     H7A      HGA2     0.900000E-01   1.00800           0
       923 MEMB     10       CHL1     H7B      HGA2     0.900000E-01   1.00800           0
       924 MEMB     10       CHL1     C8       CRL1    -0.900000E-01   12.0110           0
       925 MEMB     10       CHL1     H8       HGA1     0.900000E-01   1.00800           0
       926 MEMB     10       CHL1     C14      CRL1    -0.900000E-01   12.0110           0
       927 MEMB     10       CHL1     H14      HGA1     0.900000E-01   1.00800           0
       928 MEMB     10       CHL1     C15      CRL2    -0.180000       12.0110           0
       929 MEMB     10       CHL1     H15A     HGA2     0.900000E-01   1.00800           0
       930 MEMB     10       CHL1     H15B     HGA2     0.900000E-01   1.00800           0
       931 MEMB     10       CHL1     C16      CRL2    -0.180000       12.0110           0
       932 MEMB     10       CHL1     H16A     HGA2     0.900000E-01   1.00800           0
       933 MEMB     10       CHL1     H16B     HGA2     0.900000E-01   1.00800           0
       934 MEMB     10       CHL1     C17      CRL1    -0.900000E-01   12.0110           0
       935 MEMB     10       CHL1     H17      HGA1     0.900000E-01   1.00800           0
       936 MEMB     10       CHL1     C13      CRL1      0.00000       12.0110           0
       937 MEMB     10       CHL1     C18      CTL3    -0.270000       12.0110           0
       938 MEMB     10       CHL1     H18A     HAL3     0.900000E-01   1.00800           0
       939 MEMB     10       CHL1     H18B     HAL3     0.900000E-01   1.00800           0
       940 MEMB     10       CHL1     H18C     HAL3     0.900000E-01   1.00800           0
       941 MEMB     10       CHL1     C12      CRL2    -0.180000       12.0110           0
       942 MEMB     10       CHL1     H12A     HGA2     0.900000E-01   1.00800           0
       943 MEMB     10       CHL1     H12B     HGA2     0.900000E-01   1.00800           0
       944 MEMB     10       CHL1     C11      CRL2    -0.180000       12.0110           0
       945 MEMB     10       CHL1     H11A     HGA2     0.900000E-01   1.00800           0
       946 MEMB     10       CHL1     H11B     HGA2     0.900000E-01   1.00800           0
       947 MEMB     10       CHL1     C9       CRL1    -0.900000E-01   12.0110           0
       948 MEMB     10       CHL1     H9       HGA1     0.900000E-01   1.00800           0
       949 MEMB     10       CHL1     C10      CRL1      0.00000       12.0110           0
       950 MEMB     10       CHL1     C19      CTL3    -0.270000       12.0110           0
       951 MEMB     10       CHL1     H19A     HAL3     0.900000E-01   1.00800           0
       952 MEMB     10       CHL1     H19B     HAL3     0.900000E-01   1.00800           0
       953 MEMB     10       CHL1     H19C     HAL3     0.900000E-01   1.00800           0
       954 MEMB     10       CHL1     C1       CRL2    -0.180000       12.0110           0
       955 MEMB     10       CHL1     H1A      HGA2     0.900000E-01   1.00800           0
       956 MEMB     10       CHL1     H1B      HGA2     0.900000E-01   1.00800           0
       957 MEMB     10       CHL1     C2       CRL2    -0.180000       12.0110           0
       958 MEMB     10       CHL1     H2A      HGA2     0.900000E-01   1.00800           0
       959 MEMB     10       CHL1     H2B      HGA2     0.900000E-01   1.00800           0
       960 MEMB     10       CHL1     C20      CTL1    -0.900000E-01   12.0110           0
       961 MEMB     10       CHL1     H20      HAL1     0.900000E-01   1.00800           0
       962 MEMB     10       CHL1     C21      CTL3    -0.270000       12.0110           0
       963 MEMB     10       CHL1     H21A     HAL3     0.900000E-01   1.00800           0
       964 MEMB     10       CHL1     H21B     HAL3     0.900000E-01   1.00800           0
       965 MEMB     10       CHL1     H21C     HAL3     0.900000E-01   1.00800           0
       966 MEMB     10       CHL1     C22      CTL2    -0.180000       12.0110           0
       967 MEMB     10       CHL1     H22A     HAL2     0.900000E-01   1.00800           0
       968 MEMB     10       CHL1     H22B     HAL2     0.900000E-01   1.00800           0
       969 MEMB     10       CHL1     C23      CTL2    -0.180000       12.0110           0
       970 MEMB     10       CHL1     H23A     HAL2     0.900000E-01   1.00800           0
       971 MEMB     10       CHL1     H23B     HAL2     0.900000E-01   1.00800           0
       972 MEMB     10       CHL1     C24      CTL2    -0.180000       12.0110           0
       973 MEMB     10       CHL1     H24A     HAL2     0.900000E-01   1.00800           0
       974 MEMB     10       CHL1     H24B     HAL2     0.900000E-01   1.00800           0
       975 MEMB     10       CHL1     C25      CTL1    -0.900000E-01   12.0110           0
       976 MEMB     10       CHL1     H25      HAL1     0.900000E-01   1.00800           0
       977 MEMB     10       CHL1     C26      CTL3    -0.270000       12.0110           0
       978 MEMB     10       CHL1     H26A     HAL3     0.900000E-01   1.00800           0
       979 MEMB     10       CHL1     H26B     HAL3     0.900000E-01   1.00800           0
       980 MEMB     10       CHL1     H26C     HAL3     0.900000E-01   1.00800           0
       981 MEMB     10       CHL1     C27      CTL3    -0.270000       12.0110           0
       982 MEMB     10       CHL1     H27A     HAL3     0.900000E-01   1.00800           0
       983 MEMB     10       CHL1     H27B     HAL3     0.900000E-01   1.00800           0
       984 MEMB     10       CHL1     H27C     HAL3     0.900000E-01   1.00800           0
       985 MEMB     11       SAPE     N        NH3L    -0.300000       14.0070           0
       986 MEMB     11       SAPE     HN1      HCL      0.330000       1.00800           0
       987 MEMB     11       SAPE     HN2      HCL      0.330000       1.00800           0
       988 MEMB     11       SAPE     HN3      HCL      0.330000       1.00800           0
       989 MEMB     11       SAPE     C12      CTL2     0.130000       12.0110           0
       990 MEMB     11       SAPE     H12A     HAL2     0.900000E-01   1.00800           0
       991 MEMB     11       SAPE     H12B     HAL2     0.900000E-01   1.00800           0
       992 MEMB     11       SAPE     C11      CTL2    -0.800000E-01   12.0110           0
       993 MEMB     11       SAPE     H11A     HAL2     0.900000E-01   1.00800           0
       994 MEMB     11       SAPE     H11B     HAL2     0.900000E-01   1.00800           0
       995 MEMB     11       SAPE     P        PL        1.50000       30.9740           0
       996 MEMB     11       SAPE     O13      O2L     -0.780000       15.9994           0
       997 MEMB     11       SAPE     O14      O2L     -0.780000       15.9994           0
       998 MEMB     11       SAPE     O12      OSLP    -0.570000       15.9994           0
       999 MEMB     11       SAPE     O11      OSLP    -0.570000       15.9994           0
      1000 MEMB     11       SAPE     C1       CTL2    -0.800000E-01   12.0110           0
      1001 MEMB     11       SAPE     HA       HAL2     0.900000E-01   1.00800           0
      1002 MEMB     11       SAPE     HB       HAL2     0.900000E-01   1.00800           0
      1003 MEMB     11       SAPE     C2       CTL1     0.170000       12.0110           0
      1004 MEMB     11       SAPE     HS       HAL1     0.900000E-01   1.00800           0
      1005 MEMB     11       SAPE     O21      OSL     -0.490000       15.9994           0
      1006 MEMB     11       SAPE     C21      CL       0.900000       12.0110           0
      1007 MEMB     11       SAPE     O22      OBL     -0.630000       15.9994           0
      1008 MEMB     11       SAPE     C22      CTL2    -0.220000       12.0110           0
      1009 MEMB     11       SAPE     H2R      HAL2     0.900000E-01   1.00800           0
      1010 MEMB     11       SAPE     H2S      HAL2     0.900000E-01   1.00800           0
      1011 MEMB     11       SAPE     C3       CTL2     0.800000E-01   12.0110           0
      1012 MEMB     11       SAPE     HX       HAL2     0.900000E-01   1.00800           0
      1013 MEMB     11       SAPE     HY       HAL2     0.900000E-01   1.00800           0
      1014 MEMB     11       SAPE     O31      OSL     -0.490000       15.9994           0
      1015 MEMB     11       SAPE     C31      CL       0.900000       12.0110           0
      1016 MEMB     11       SAPE     O32      OBL     -0.630000       15.9994           0
      1017 MEMB     11       SAPE     C32      CTL2    -0.220000       12.0110           0
      1018 MEMB     11       SAPE     H2X      HAL2     0.900000E-01   1.00800           0
      1019 MEMB     11       SAPE     H2Y      HAL2     0.900000E-01   1.00800           0
      1020 MEMB     11       SAPE     C23      CTL2    -0.180000       12.0110           0
      1021 MEMB     11       SAPE     H3R      HAL2     0.900000E-01   1.00800           0
      1022 MEMB     11       SAPE     H3S      HAL2     0.900000E-01   1.00800           0
      1023 MEMB     11       SAPE     C24      CTL2    -0.180000       12.0110           0
      1024 MEMB     11       SAPE     H4R      HAL2     0.900000E-01   1.00800           0
      1025 MEMB     11       SAPE     H4S      HAL2     0.900000E-01   1.00800           0
      1026 MEMB     11       SAPE     C25      CEL1    -0.150000       12.0110           0
      1027 MEMB     11       SAPE     H5R      HEL1     0.150000       1.00800           0
      1028 MEMB     11       SAPE     C26      CEL1    -0.150000       12.0110           0
      1029 MEMB     11       SAPE     H6R      HEL1     0.150000       1.00800           0
      1030 MEMB     11       SAPE     C27      CTL2    -0.180000       12.0110           0
      1031 MEMB     11       SAPE     H7R      HAL2     0.900000E-01   1.00800           0
      1032 MEMB     11       SAPE     H7S      HAL2     0.900000E-01   1.00800           0
      1033 MEMB     11       SAPE     C28      CEL1    -0.150000       12.0110           0
      1034 MEMB     11       SAPE     H8R      HEL1     0.150000       1.00800           0
      1035 MEMB     11       SAPE     C29      CEL1    -0.150000       12.0110           0
      1036 MEMB     11       SAPE     H9R      HEL1     0.150000       1.00800           0
      1037 MEMB     11       SAPE     C210     CTL2    -0.180000       12.0110           0
      1038 MEMB     11       SAPE     H10R     HAL2     0.900000E-01   1.00800           0
      1039 MEMB     11       SAPE     H10S     HAL2     0.900000E-01   1.00800           0
      1040 MEMB     11       SAPE     C211     CEL1    -0.150000       12.0110           0
      1041 MEMB     11       SAPE     H11R     HEL1     0.150000       1.00800           0
      1042 MEMB     11       SAPE     C212     CEL1    -0.150000       12.0110           0
      1043 MEMB     11       SAPE     H12R     HEL1     0.150000       1.00800           0
      1044 MEMB     11       SAPE     C213     CTL2    -0.180000       12.0110           0
      1045 MEMB     11       SAPE     H13R     HAL2     0.900000E-01   1.00800           0
      1046 MEMB     11       SAPE     H13S     HAL2     0.900000E-01   1.00800           0
      1047 MEMB     11       SAPE     C214     CEL1    -0.150000       12.0110           0
      1048 MEMB     11       SAPE     H14R     HEL1     0.150000       1.00800           0
      1049 MEMB     11       SAPE     C215     CEL1    -0.150000       12.0110           0
      1050 MEMB     11       SAPE     H15R     HEL1     0.150000       1.00800           0
      1051 MEMB     11       SAPE     C216     CTL2    -0.180000       12.0110           0
      1052 MEMB     11       SAPE     H16R     HAL2     0.900000E-01   1.00800           0
      1053 MEMB     11       SAPE     H16S     HAL2     0.900000E-01   1.00800           0
      1054 MEMB     11       SAPE     C217     CTL2    -0.180000       12.0110           0
      1055 MEMB     11       SAPE     H17R     HAL2     0.900000E-01   1.00800           0
      1056 MEMB     11       SAPE     H17S     HAL2     0.900000E-01   1.00800           0
      1057 MEMB     11       SAPE     C218     CTL2    -0.180000       12.0110           0
      1058 MEMB     11       SAPE     H18R     HAL2     0.900000E-01   1.00800           0
      1059 MEMB     11       SAPE     H18S     HAL2     0.900000E-01   1.00800           0
      1060 MEMB     11       SAPE     C219     CTL2    -0.180000       12.0110           0
      1061 MEMB     11       SAPE     H19R     HAL2     0.900000E-01   1.00800           0
      1062 MEMB     11       SAPE     H19S     HAL2     0.900000E-01   1.00800           0
      1063 MEMB     11       SAPE     C220     CTL3    -0.270000       12.0110           0
      1064 MEMB     11       SAPE     H20R     HAL3     0.900000E-01   1.00800           0
      1065 MEMB     11       SAPE     H20S     HAL3     0.900000E-01   1.00800           0
      1066 MEMB     11       SAPE     H20T     HAL3     0.900000E-01   1.00800           0
      1067 MEMB     11       SAPE     C33      CTL2    -0.180000       12.0110           0
      1068 MEMB     11       SAPE     H3X      HAL2     0.900000E-01   1.00800           0
      1069 MEMB     11       SAPE     H3Y      HAL2     0.900000E-01   1.00800           0
      1070 MEMB     11       SAPE     C34      CTL2    -0.180000       12.0110           0
      1071 MEMB     11       SAPE     H4X      HAL2     0.900000E-01   1.00800           0
      1072 MEMB     11       SAPE     H4Y      HAL2     0.900000E-01   1.00800           0
      1073 MEMB     11       SAPE     C35      CTL2    -0.180000       12.0110           0
      1074 MEMB     11       SAPE     H5X      HAL2     0.900000E-01   1.00800           0
      1075 MEMB     11       SAPE     H5Y      HAL2     0.900000E-01   1.00800           0
      1076 MEMB     11       SAPE     C36      CTL2    -0.180000       12.0110           0
      1077 MEMB     11       SAPE     H6X      HAL2     0.900000E-01   1.00800           0
      1078 MEMB     11       SAPE     H6Y      HAL2     0.900000E-01   1.00800           0
      1079 MEMB     11       SAPE     C37      CTL2    -0.180000       12.0110           0
      1080 MEMB     11       SAPE     H7X      HAL2     0.900000E-01   1.00800           0
      1081 MEMB     11       SAPE     H7Y      HAL2     0.900000E-01   1.00800           0
      1082 MEMB     11       SAPE     C38      CTL2    -0.180000       12.0110           0
      1083 MEMB     11       SAPE     H8X      HAL2     0.900000E-01   1.00800           0
      1084 MEMB     11       SAPE     H8Y      HAL2     0.900000E-01   1.00800           0
      1085 MEMB     11       SAPE     C39      CTL2    -0.180000       12.0110           0
      1086 MEMB     11       SAPE     H9X      HAL2     0.900000E-01   1.00800           0
      1087 MEMB     11       SAPE     H9Y      HAL2     0.900000E-01   1.00800           0
      1088 MEMB     11       SAPE     C310     CTL2    -0.180000       12.0110           0
      1089 MEMB     11       SAPE     H10X     HAL2     0.900000E-01   1.00800           0
      1090 MEMB     11       SAPE     H10Y     HAL2     0.900000E-01   1.00800           0
      1091 MEMB     11       SAPE     C311     CTL2    -0.180000       12.0110           0
      1092 MEMB     11       SAPE     H11X     HAL2     0.900000E-01   1.00800           0
      1093 MEMB     11       SAPE     H11Y     HAL2     0.900000E-01   1.00800           0
      1094 MEMB     11       SAPE     C312     CTL2    -0.180000       12.0110           0
      1095 MEMB     11       SAPE     H12X     HAL2     0.900000E-01   1.00800           0
      1096 MEMB     11       SAPE     H12Y     HAL2     0.900000E-01   1.00800           0
      1097 MEMB     11       SAPE     C313     CTL2    -0.180000       12.0110           0
      1098 MEMB     11       SAPE     H13X     HAL2     0.900000E-01   1.00800           0
      1099 MEMB     11       SAPE     H13Y     HAL2     0.900000E-01   1.00800           0
      1100 MEMB     11       SAPE     C314     CTL2    -0.180000       12.0110           0
      1101 MEMB     11       SAPE     H14X     HAL2     0.900000E-01   1.00800           0
      1102 MEMB     11       SAPE     H14Y     HAL2     0.900000E-01   1.00800           0
      1103 MEMB     11       SAPE     C315     CTL2    -0.180000       12.0110           0
      1104 MEMB     11       SAPE     H15X     HAL2     0.900000E-01   1.00800           0
      1105 MEMB     11       SAPE     H15Y     HAL2     0.900000E-01   1.00800           0
      1106 MEMB     11       SAPE     C316     CTL2    -0.180000       12.0110           0
      1107 MEMB     11       SAPE     H16X     HAL2     0.900000E-01   1.00800           0
      1108 MEMB     11       SAPE     H16Y     HAL2     0.900000E-01   1.00800           0
      1109 MEMB     11       SAPE     C317     CTL2    -0.180000       12.0110           0
      1110 MEMB     11       SAPE     H17X     HAL2     0.900000E-01   1.00800           0
      1111 MEMB     11       SAPE     H17Y     HAL2     0.900000E-01   1.00800           0
      1112 MEMB     11       SAPE     C318     CTL3    -0.270000       12.0110           0
      1113 MEMB     11       SAPE     H18X     HAL3     0.900000E-01   1.00800           0
      1114 MEMB     11       SAPE     H18Y     HAL3     0.900000E-01   1.00800           0
      1115 MEMB     11       SAPE     H18Z     HAL3     0.900000E-01   1.00800           0
      1116 MEMB     12       CHL1     C3       CRL1     0.140000       12.0110           0
      1117 MEMB     12       CHL1     H3       HGA1     0.900000E-01   1.00800           0
      1118 MEMB     12       CHL1     O3       OHL     -0.660000       15.9994           0
      1119 MEMB     12       CHL1     H3'      HOL      0.430000       1.00800           0
      1120 MEMB     12       CHL1     C4       CRL2    -0.180000       12.0110           0
      1121 MEMB     12       CHL1     H4A      HGA2     0.900000E-01   1.00800           0
      1122 MEMB     12       CHL1     H4B      HGA2     0.900000E-01   1.00800           0
      1123 MEMB     12       CHL1     C5       CEL1      0.00000       12.0110           0
      1124 MEMB     12       CHL1     C6       CEL1    -0.150000       12.0110           0
      1125 MEMB     12       CHL1     H6       HEL1     0.150000       1.00800           0
      1126 MEMB     12       CHL1     C7       CRL2    -0.180000       12.0110           0
      1127 MEMB     12       CHL1     H7A      HGA2     0.900000E-01   1.00800           0
      1128 MEMB     12       CHL1     H7B      HGA2     0.900000E-01   1.00800           0
      1129 MEMB     12       CHL1     C8       CRL1    -0.900000E-01   12.0110           0
      1130 MEMB     12       CHL1     H8       HGA1     0.900000E-01   1.00800           0
      1131 MEMB     12       CHL1     C14      CRL1    -0.900000E-01   12.0110           0
      1132 MEMB     12       CHL1     H14      HGA1     0.900000E-01   1.00800           0
      1133 MEMB     12       CHL1     C15      CRL2    -0.180000       12.0110           0
      1134 MEMB     12       CHL1     H15A     HGA2     0.900000E-01   1.00800           0
      1135 MEMB     12       CHL1     H15B     HGA2     0.900000E-01   1.00800           0
      1136 MEMB     12       CHL1     C16      CRL2    -0.180000       12.0110           0
      1137 MEMB     12       CHL1     H16A     HGA2     0.900000E-01   1.00800           0
      1138 MEMB     12       CHL1     H16B     HGA2     0.900000E-01   1.00800           0
      1139 MEMB     12       CHL1     C17      CRL1    -0.900000E-01   12.0110           0
      1140 MEMB     12       CHL1     H17      HGA1     0.900000E-01   1.00800           0
      1141 MEMB     12       CHL1     C13      CRL1      0.00000       12.0110           0
      1142 MEMB     12       CHL1     C18      CTL3    -0.270000       12.0110           0
      1143 MEMB     12       CHL1     H18A     HAL3     0.900000E-01   1.00800           0
      1144 MEMB     12       CHL1     H18B     HAL3     0.900000E-01   1.00800           0
      1145 MEMB     12       CHL1     H18C     HAL3     0.900000E-01   1.00800           0
      1146 MEMB     12       CHL1     C12      CRL2    -0.180000       12.0110           0
      1147 MEMB     12       CHL1     H12A     HGA2     0.900000E-01   1.00800           0
      1148 MEMB     12       CHL1     H12B     HGA2     0.900000E-01   1.00800           0
      1149 MEMB     12       CHL1     C11      CRL2    -0.180000       12.0110           0
      1150 MEMB     12       CHL1     H11A     HGA2     0.900000E-01   1.00800           0
      1151 MEMB     12       CHL1     H11B     HGA2     0.900000E-01   1.00800           0
      1152 MEMB     12       CHL1     C9       CRL1    -0.900000E-01   12.0110           0
      1153 MEMB     12       CHL1     H9       HGA1     0.900000E-01   1.00800           0
      1154 MEMB     12       CHL1     C10      CRL1      0.00000       12.0110           0
      1155 MEMB     12       CHL1     C19      CTL3    -0.270000       12.0110           0
      1156 MEMB     12       CHL1     H19A     HAL3     0.900000E-01   1.00800           0
      1157 MEMB     12       CHL1     H19B     HAL3     0.900000E-01   1.00800           0
      1158 MEMB     12       CHL1     H19C     HAL3     0.900000E-01   1.00800           0
      1159 MEMB     12       CHL1     C1       CRL2    -0.180000       12.0110           0
      1160 MEMB     12       CHL1     H1A      HGA2     0.900000E-01   1.00800           0
      1161 MEMB     12       CHL1     H1B      HGA2     0.900000E-01   1.00800           0
      1162 MEMB     12       CHL1     C2       CRL2    -0.180000       12.0110           0
      1163 MEMB     12       CHL1     H2A      HGA2     0.900000E-01   1.00800           0
      1164 MEMB     12       CHL1     H2B      HGA2     0.900000E-01   1.00800           0
      1165 MEMB     12       CHL1     C20      CTL1    -0.900000E-01   12.0110           0
      1166 MEMB     12       CHL1     H20      HAL1     0.900000E-01   1.00800           0
      1167 MEMB     12       CHL1     C21      CTL3    -0.270000       12.0110           0
      1168 MEMB     12       CHL1     H21A     HAL3     0.900000E-01   1.00800           0
      1169 MEMB     12       CHL1     H21B     HAL3     0.900000E-01   1.00800           0
      1170 MEMB     12       CHL1     H21C     HAL3     0.900000E-01   1.00800           0
      1171 MEMB     12       CHL1     C22      CTL2    -0.180000       12.0110           0
      1172 MEMB     12       CHL1     H22A     HAL2     0.900000E-01   1.00800           0
      1173 MEMB     12       CHL1     H22B     HAL2     0.900000E-01   1.00800           0
      1174 MEMB     12       CHL1     C23      CTL2    -0.180000       12.0110           0
      1175 MEMB     12       CHL1     H23A     HAL2     0.900000E-01   1.00800           0
      1176 MEMB     12       CHL1     H23B     HAL2     0.900000E-01   1.00800           0
      1177 MEMB     12       CHL1     C24      CTL2    -0.180000       12.0110           0
      1178 MEMB     12       CHL1     H24A     HAL2     0.900000E-01   1.00800           0
      1179 MEMB     12       CHL1     H24B     HAL2     0.900000E-01   1.00800           0
      1180 MEMB     12       CHL1     C25      CTL1    -0.900000E-01   12.0110           0
      1181 MEMB     12       CHL1     H25      HAL1     0.900000E-01   1.00800           0
      1182 MEMB     12       CHL1     C26      CTL3    -0.270000       12.0110           0
      1183 MEMB     12       CHL1     H26A     HAL3     0.900000E-01   1.00800           0
      1184 MEMB     12       CHL1     H26B     HAL3     0.900000E-01   1.00800           0
      1185 MEMB     12       CHL1     H26C     HAL3     0.900000E-01   1.00800           0
      1186 MEMB     12       CHL1     C27      CTL3    -0.270000       12.0110           0
      1187 MEMB     12       CHL1     H27A     HAL3     0.900000E-01   1.00800           0
      1188 MEMB     12       CHL1     H27B     HAL3     0.900000E-01   1.00800           0
      1189 MEMB     12       CHL1     H27C     HAL3     0.900000E-01   1.00800           0
      1190 MEMB     13       SLPC     N        NTL     -0.600000       14.0070           0
      1191 MEMB     13       SLPC     C13      CTL5    -0.350000       12.0110           0
      1192 MEMB     13       SLPC     H13A     HL       0.250000       1.00800           0
      1193 MEMB     13       SLPC     H13B     HL       0.250000       1.00800           0
      1194 MEMB     13       SLPC     H13C     HL       0.250000       1.00800           0
      1195 MEMB     13       SLPC     C14      CTL5    -0.350000       12.0110           0
      1196 MEMB     13       SLPC     H14A     HL       0.250000       1.00800           0
      1197 MEMB     13       SLPC     H14B     HL       0.250000       1.00800           0
      1198 MEMB     13       SLPC     H14C     HL       0.250000       1.00800           0
      1199 MEMB     13       SLPC     C15      CTL5    -0.350000       12.0110           0
      1200 MEMB     13       SLPC     H15A     HL       0.250000       1.00800           0
      1201 MEMB     13       SLPC     H15B     HL       0.250000       1.00800           0
      1202 MEMB     13       SLPC     H15C     HL       0.250000       1.00800           0
      1203 MEMB     13       SLPC     C12      CTL2    -0.100000       12.0110           0
      1204 MEMB     13       SLPC     H12A     HL       0.250000       1.00800           0
      1205 MEMB     13       SLPC     H12B     HL       0.250000       1.00800           0
      1206 MEMB     13       SLPC     C11      CTL2    -0.800000E-01   12.0110           0
      1207 MEMB     13       SLPC     H11A     HAL2     0.900000E-01   1.00800           0
      1208 MEMB     13       SLPC     H11B     HAL2     0.900000E-01   1.00800           0
      1209 MEMB     13       SLPC     P        PL        1.50000       30.9740           0
      1210 MEMB     13       SLPC     O13      O2L     -0.780000       15.9994           0
      1211 MEMB     13       SLPC     O14      O2L     -0.780000       15.9994           0
      1212 MEMB     13       SLPC     O12      OSLP    -0.570000       15.9994           0
      1213 MEMB     13       SLPC     O11      OSLP    -0.570000       15.9994           0
      1214 MEMB     13       SLPC     C1       CTL2    -0.800000E-01   12.0110           0
      1215 MEMB     13       SLPC     HA       HAL2     0.900000E-01   1.00800           0
      1216 MEMB     13       SLPC     HB       HAL2     0.900000E-01   1.00800           0
      1217 MEMB     13       SLPC     C2       CTL1     0.170000       12.0110           0
      1218 MEMB     13       SLPC     HS       HAL1     0.900000E-01   1.00800           0
      1219 MEMB     13       SLPC     O21      OSL     -0.490000       15.9994           0
      1220 MEMB     13       SLPC     C21      CL       0.900000       12.0110           0
      1221 MEMB     13       SLPC     O22      OBL     -0.630000       15.9994           0
      1222 MEMB     13       SLPC     C22      CTL2    -0.220000       12.0110           0
      1223 MEMB     13       SLPC     H2R      HAL2     0.900000E-01   1.00800           0
      1224 MEMB     13       SLPC     H2S      HAL2     0.900000E-01   1.00800           0
      1225 MEMB     13       SLPC     C3       CTL2     0.800000E-01   12.0110           0
      1226 MEMB     13       SLPC     HX       HAL2     0.900000E-01   1.00800           0
      1227 MEMB     13       SLPC     HY       HAL2     0.900000E-01   1.00800           0
      1228 MEMB     13       SLPC     O31      OSL     -0.490000       15.9994           0
      1229 MEMB     13       SLPC     C31      CL       0.900000       12.0110           0
      1230 MEMB     13       SLPC     O32      OBL     -0.630000       15.9994           0
      1231 MEMB     13       SLPC     C32      CTL2    -0.220000       12.0110           0
      1232 MEMB     13       SLPC     H2X      HAL2     0.900000E-01   1.00800           0
      1233 MEMB     13       SLPC     H2Y      HAL2     0.900000E-01   1.00800           0
      1234 MEMB     13       SLPC     C23      CTL2    -0.180000       12.0110           0
      1235 MEMB     13       SLPC     H3R      HAL2     0.900000E-01   1.00800           0
      1236 MEMB     13       SLPC     H3S      HAL2     0.900000E-01   1.00800           0
      1237 MEMB     13       SLPC     C24      CTL2    -0.180000       12.0110           0
      1238 MEMB     13       SLPC     H4R      HAL2     0.900000E-01   1.00800           0
      1239 MEMB     13       SLPC     H4S      HAL2     0.900000E-01   1.00800           0
      1240 MEMB     13       SLPC     C25      CTL2    -0.180000       12.0110           0
      1241 MEMB     13       SLPC     H5R      HAL2     0.900000E-01   1.00800           0
      1242 MEMB     13       SLPC     H5S      HAL2     0.900000E-01   1.00800           0
      1243 MEMB     13       SLPC     C26      CTL2    -0.180000       12.0110           0
      1244 MEMB     13       SLPC     H6R      HAL2     0.900000E-01   1.00800           0
      1245 MEMB     13       SLPC     H6S      HAL2     0.900000E-01   1.00800           0
      1246 MEMB     13       SLPC     C27      CTL2    -0.180000       12.0110           0
      1247 MEMB     13       SLPC     H7R      HAL2     0.900000E-01   1.00800           0
      1248 MEMB     13       SLPC     H7S      HAL2     0.900000E-01   1.00800           0
      1249 MEMB     13       SLPC     C28      CTL2    -0.180000       12.0110           0
      1250 MEMB     13       SLPC     H8R      HAL2     0.900000E-01   1.00800           0
      1251 MEMB     13       SLPC     H8S      HAL2     0.900000E-01   1.00800           0
      1252 MEMB     13       SLPC     C29      CEL1    -0.150000       12.0110           0
      1253 MEMB     13       SLPC     H9R      HEL1     0.150000       1.00800           0
      1254 MEMB     13       SLPC     C210     CEL1    -0.150000       12.0110           0
      1255 MEMB     13       SLPC     H10R     HEL1     0.150000       1.00800           0
      1256 MEMB     13       SLPC     C211     CTL2    -0.180000       12.0110           0
      1257 MEMB     13       SLPC     H11R     HAL2     0.900000E-01   1.00800           0
      1258 MEMB     13       SLPC     H11S     HAL2     0.900000E-01   1.00800           0
      1259 MEMB     13       SLPC     C212     CEL1    -0.150000       12.0110           0
      1260 MEMB     13       SLPC     H12R     HEL1     0.150000       1.00800           0
      1261 MEMB     13       SLPC     C213     CEL1    -0.150000       12.0110           0
      1262 MEMB     13       SLPC     H13R     HEL1     0.150000       1.00800           0
      1263 MEMB     13       SLPC     C214     CTL2    -0.180000       12.0110           0
      1264 MEMB     13       SLPC     H14R     HAL2     0.900000E-01   1.00800           0
      1265 MEMB     13       SLPC     H14S     HAL2     0.900000E-01   1.00800           0
      1266 MEMB     13       SLPC     C215     CTL2    -0.180000       12.0110           0
      1267 MEMB     13       SLPC     H15R     HAL2     0.900000E-01   1.00800           0
      1268 MEMB     13       SLPC     H15S     HAL2     0.900000E-01   1.00800           0
      1269 MEMB     13       SLPC     C216     CTL2    -0.180000       12.0110           0
      1270 MEMB     13       SLPC     H16R     HAL2     0.900000E-01   1.00800           0
      1271 MEMB     13       SLPC     H16S     HAL2     0.900000E-01   1.00800           0
      1272 MEMB     13       SLPC     C217     CTL2    -0.180000       12.0110           0
      1273 MEMB     13       SLPC     H17R     HAL2     0.900000E-01   1.00800           0
      1274 MEMB     13       SLPC     H17S     HAL2     0.900000E-01   1.00800           0
      1275 MEMB     13       SLPC     C218     CTL3    -0.270000       12.0110           0
      1276 MEMB     13       SLPC     H18R     HAL3     0.900000E-01   1.00800           0
      1277 MEMB     13       SLPC     H18S     HAL3     0.900000E-01   1.00800           0
      1278 MEMB     13       SLPC     H18T     HAL3     0.900000E-01   1.00800           0
      1279 MEMB     13       SLPC     C33      CTL2    -0.180000       12.0110           0
      1280 MEMB     13       SLPC     H3X      HAL2     0.900000E-01   1.00800           0
      1281 MEMB     13       SLPC     H3Y      HAL2     0.900000E-01   1.00800           0
      1282 MEMB     13       SLPC     C34      CTL2    -0.180000       12.0110           0
      1283 MEMB     13       SLPC     H4X      HAL2     0.900000E-01   1.00800           0
      1284 MEMB     13       SLPC     H4Y      HAL2     0.900000E-01   1.00800           0
      1285 MEMB     13       SLPC     C35      CTL2    -0.180000       12.0110           0
      1286 MEMB     13       SLPC     H5X      HAL2     0.900000E-01   1.00800           0
      1287 MEMB     13       SLPC     H5Y      HAL2     0.900000E-01   1.00800           0
      1288 MEMB     13       SLPC     C36      CTL2    -0.180000       12.0110           0
      1289 MEMB     13       SLPC     H6X      HAL2     0.900000E-01   1.00800           0
      1290 MEMB     13       SLPC     H6Y      HAL2     0.900000E-01   1.00800           0
      1291 MEMB     13       SLPC     C37      CTL2    -0.180000       12.0110           0
      1292 MEMB     13       SLPC     H7X      HAL2     0.900000E-01   1.00800           0
      1293 MEMB     13       SLPC     H7Y      HAL2     0.900000E-01   1.00800           0
      1294 MEMB     13       SLPC     C38      CTL2    -0.180000       12.0110           0
      1295 MEMB     13       SLPC     H8X      HAL2     0.900000E-01   1.00800           0
      1296 MEMB     13       SLPC     H8Y      HAL2     0.900000E-01   1.00800           0
      1297 MEMB     13       SLPC     C39      CTL2    -0.180000       12.0110           0
      1298 MEMB     13       SLPC     H9X      HAL2     0.900000E-01   1.00800           0
      1299 MEMB     13       SLPC     H9Y      HAL2     0.900000E-01   1.00800           0
      1300 MEMB     13       SLPC     C310     CTL2    -0.180000       12.0110           0
      1301 MEMB     13       SLPC     H10X     HAL2     0.900000E-01   1.00800           0
      1302 MEMB     13       SLPC     H10Y     HAL2     0.900000E-01   1.00800           0
      1303 MEMB     13       SLPC     C311     CTL2    -0.180000       12.0110           0
      1304 MEMB     13       SLPC     H11X     HAL2     0.900000E-01   1.00800           0
      1305 MEMB     13       SLPC     H11Y     HAL2     0.900000E-01   1.00800           0
      1306 MEMB     13       SLPC     C312     CTL2    -0.180000       12.0110           0
      1307 MEMB     13       SLPC     H12X     HAL2     0.900000E-01   1.00800           0
      1308 MEMB     13       SLPC     H12Y     HAL2     0.900000E-01   1.00800           0
      1309 MEMB     13       SLPC     C313     CTL2    -0.180000       12.0110           0
      1310 MEMB     13       SLPC     H13X     HAL2     0.900000E-01   1.00800           0
      1311 MEMB     13       SLPC     H13Y     HAL2     0.900000E-01   1.00800           0
      1312 MEMB     13       SLPC     C314     CTL2    -0.180000       12.0110           0
      1313 MEMB     13       SLPC     H14X     HAL2     0.900000E-01   1.00800           0
      1314 MEMB     13       SLPC     H14Y     HAL2     0.900000E-01   1.00800           0
      1315 MEMB     13       SLPC     C315     CTL2    -0.180000       12.0110           0
      1316 MEMB     13       SLPC     H15X     HAL2     0.900000E-01   1.00800           0
      1317 MEMB     13       SLPC     H15Y     HAL2     0.900000E-01   1.00800           0
      1318 MEMB     13       SLPC     C316     CTL2    -0.180000       12.0110           0
      1319 MEMB     13       SLPC     H16X     HAL2     0.900000E-01   1.00800           0
      1320 MEMB     13       SLPC     H16Y     HAL2     0.900000E-01   1.00800           0
      1321 MEMB     13       SLPC     C317     CTL2    -0.180000       12.0110           0
      1322 MEMB     13       SLPC     H17X     HAL2     0.900000E-01   1.00800           0
      1323 MEMB     13       SLPC     H17Y     HAL2     0.900000E-01   1.00800           0
      1324 MEMB     13       SLPC     C318     CTL3    -0.270000       12.0110           0
      1325 MEMB     13       SLPC     H18X     HAL3     0.900000E-01   1.00800           0
      1326 MEMB     13       SLPC     H18Y     HAL3     0.900000E-01   1.00800           0
      1327 MEMB     13       SLPC     H18Z     HAL3     0.900000E-01   1.00800           0
      1328 MEMB     14       OSM      N        NTL     -0.600000       14.0070           0
      1329 MEMB     14       OSM      C15      CTL5    -0.350000       12.0110           0
      1330 MEMB     14       OSM      H15A     HL       0.250000       1.00800           0
      1331 MEMB     14       OSM      H15B     HL       0.250000       1.00800           0
      1332 MEMB     14       OSM      H15C     HL       0.250000       1.00800           0
      1333 MEMB     14       OSM      C14      CTL5    -0.350000       12.0110           0
      1334 MEMB     14       OSM      H14A     HL       0.250000       1.00800           0
      1335 MEMB     14       OSM      H14B     HL       0.250000       1.00800           0
      1336 MEMB     14       OSM      H14C     HL       0.250000       1.00800           0
      1337 MEMB     14       OSM      C13      CTL5    -0.350000       12.0110           0
      1338 MEMB     14       OSM      H13A     HL       0.250000       1.00800           0
      1339 MEMB     14       OSM      H13B     HL       0.250000       1.00800           0
      1340 MEMB     14       OSM      H13C     HL       0.250000       1.00800           0
      1341 MEMB     14       OSM      C12      CTL2    -0.100000       12.0110           0
      1342 MEMB     14       OSM      H12A     HL       0.250000       1.00800           0
      1343 MEMB     14       OSM      H12B     HL       0.250000       1.00800           0
      1344 MEMB     14       OSM      C11      CTL2    -0.800000E-01   12.0110           0
      1345 MEMB     14       OSM      H11A     HAL2     0.900000E-01   1.00800           0
      1346 MEMB     14       OSM      H11B     HAL2     0.900000E-01   1.00800           0
      1347 MEMB     14       OSM      P        PL        1.50000       30.9740           0
      1348 MEMB     14       OSM      O13      O2L     -0.780000       15.9994           0
      1349 MEMB     14       OSM      O14      O2L     -0.780000       15.9994           0
      1350 MEMB     14       OSM      O11      OSLP    -0.570000       15.9994           0
      1351 MEMB     14       OSM      O12      OSLP    -0.570000       15.9994           0
      1352 MEMB     14       OSM      C1S      CTL2    -0.800000E-01   12.0110           0
      1353 MEMB     14       OSM      H1S      HAL2     0.900000E-01   1.00800           0
      1354 MEMB     14       OSM      H1T      HAL2     0.900000E-01   1.00800           0
      1355 MEMB     14       OSM      NF       NHL     -0.700000       14.0070           0
      1356 MEMB     14       OSM      HNF      H        0.350000       1.00800           0
      1357 MEMB     14       OSM      C2S      CTL1     0.300000       12.0110           0
      1358 MEMB     14       OSM      H2S      HAL1     0.500000E-01   1.00800           0
      1359 MEMB     14       OSM      C3S      CTO1     0.500000       12.0110           0
      1360 MEMB     14       OSM      H3S      HAL1    -0.110000       1.00800           0
      1361 MEMB     14       OSM      O3       OHL     -0.690000       15.9994           0
      1362 MEMB     14       OSM      HO3      HOL      0.300000       1.00800           0
      1363 MEMB     14       OSM      C4S      CEL3    -0.150000       12.0110           0
      1364 MEMB     14       OSM      H4S      HEL1     0.150000       1.00800           0
      1365 MEMB     14       OSM      C5S      CEL3    -0.150000       12.0110           0
      1366 MEMB     14       OSM      H5S      HEL1     0.150000       1.00800           0
      1367 MEMB     14       OSM      C6S      CTL2    -0.180000       12.0110           0
      1368 MEMB     14       OSM      H6S      HAL2     0.900000E-01   1.00800           0
      1369 MEMB     14       OSM      H6T      HAL2     0.900000E-01   1.00800           0
      1370 MEMB     14       OSM      C7S      CTL2    -0.180000       12.0110           0
      1371 MEMB     14       OSM      H7S      HAL2     0.900000E-01   1.00800           0
      1372 MEMB     14       OSM      H7T      HAL2     0.900000E-01   1.00800           0
      1373 MEMB     14       OSM      C8S      CTL2    -0.180000       12.0110           0
      1374 MEMB     14       OSM      H8S      HAL2     0.900000E-01   1.00800           0
      1375 MEMB     14       OSM      H8T      HAL2     0.900000E-01   1.00800           0
      1376 MEMB     14       OSM      C9S      CTL2    -0.180000       12.0110           0
      1377 MEMB     14       OSM      H9S      HAL2     0.900000E-01   1.00800           0
      1378 MEMB     14       OSM      H9T      HAL2     0.900000E-01   1.00800           0
      1379 MEMB     14       OSM      C10S     CTL2    -0.180000       12.0110           0
      1380 MEMB     14       OSM      H10S     HAL2     0.900000E-01   1.00800           0
      1381 MEMB     14       OSM      H10T     HAL2     0.900000E-01   1.00800           0
      1382 MEMB     14       OSM      C11S     CTL2    -0.180000       12.0110           0
      1383 MEMB     14       OSM      H11S     HAL2     0.900000E-01   1.00800           0
      1384 MEMB     14       OSM      H11T     HAL2     0.900000E-01   1.00800           0
      1385 MEMB     14       OSM      C12S     CTL2    -0.180000       12.0110           0
      1386 MEMB     14       OSM      H12S     HAL2     0.900000E-01   1.00800           0
      1387 MEMB     14       OSM      H12T     HAL2     0.900000E-01   1.00800           0
      1388 MEMB     14       OSM      C13S     CTL2    -0.180000       12.0110           0
      1389 MEMB     14       OSM      H13S     HAL2     0.900000E-01   1.00800           0
      1390 MEMB     14       OSM      H13T     HAL2     0.900000E-01   1.00800           0
      1391 MEMB     14       OSM      C14S     CTL2    -0.180000       12.0110           0
      1392 MEMB     14       OSM      H14S     HAL2     0.900000E-01   1.00800           0
      1393 MEMB     14       OSM      H14T     HAL2     0.900000E-01   1.00800           0
      1394 MEMB     14       OSM      C15S     CTL2    -0.180000       12.0110           0
      1395 MEMB     14       OSM      H15S     HAL2     0.900000E-01   1.00800           0
      1396 MEMB     14       OSM      H15T     HAL2     0.900000E-01   1.00800           0
      1397 MEMB     14       OSM      C16S     CTL2    -0.180000       12.0110           0
      1398 MEMB     14       OSM      H16S     HAL2     0.900000E-01   1.00800           0
      1399 MEMB     14       OSM      H16T     HAL2     0.900000E-01   1.00800           0
      1400 MEMB     14       OSM      C17S     CTL2    -0.180000       12.0110           0
      1401 MEMB     14       OSM      H17S     HAL2     0.900000E-01   1.00800           0
      1402 MEMB     14       OSM      H17T     HAL2     0.900000E-01   1.00800           0
      1403 MEMB     14       OSM      C18S     CTL3    -0.270000       12.0110           0
      1404 MEMB     14       OSM      H18S     HAL3     0.900000E-01   1.00800           0
      1405 MEMB     14       OSM      H18T     HAL3     0.900000E-01   1.00800           0
      1406 MEMB     14       OSM      H18U     HAL3     0.900000E-01   1.00800           0
      1407 MEMB     14       OSM      C1F      C        0.550000       12.0110           0
      1408 MEMB     14       OSM      OF       O       -0.600000       15.9994           0
      1409 MEMB     14       OSM      C2F      CTL2    -0.700000E-01   12.0110           0
      1410 MEMB     14       OSM      H2F      HAL2     0.600000E-01   1.00800           0
      1411 MEMB     14       OSM      H2G      HAL2     0.600000E-01   1.00800           0
      1412 MEMB     14       OSM      C3F      CTL2    -0.180000       12.0110           0
      1413 MEMB     14       OSM      H3F      HAL2     0.900000E-01   1.00800           0
      1414 MEMB     14       OSM      H3G      HAL2     0.900000E-01   1.00800           0
      1415 MEMB     14       OSM      C4F      CTL2    -0.180000       12.0110           0
      1416 MEMB     14       OSM      H4F      HAL2     0.900000E-01   1.00800           0
      1417 MEMB     14       OSM      H4G      HAL2     0.900000E-01   1.00800           0
      1418 MEMB     14       OSM      C5F      CTL2    -0.180000       12.0110           0
      1419 MEMB     14       OSM      H5F      HAL2     0.900000E-01   1.00800           0
      1420 MEMB     14       OSM      H5G      HAL2     0.900000E-01   1.00800           0
      1421 MEMB     14       OSM      C6F      CTL2    -0.180000       12.0110           0
      1422 MEMB     14       OSM      H6F      HAL2     0.900000E-01   1.00800           0
      1423 MEMB     14       OSM      H6G      HAL2     0.900000E-01   1.00800           0
      1424 MEMB     14       OSM      C7F      CTL2    -0.180000       12.0110           0
      1425 MEMB     14       OSM      H7F      HAL2     0.900000E-01   1.00800           0
      1426 MEMB     14       OSM      H7G      HAL2     0.900000E-01   1.00800           0
      1427 MEMB     14       OSM      C8F      CTL2    -0.180000       12.0110           0
      1428 MEMB     14       OSM      H8F      HAL2     0.900000E-01   1.00800           0
      1429 MEMB     14       OSM      H8G      HAL2     0.900000E-01   1.00800           0
      1430 MEMB     14       OSM      C9F      CEL1    -0.150000       12.0110           0
      1431 MEMB     14       OSM      H9F      HEL1     0.150000       1.00800           0
      1432 MEMB     14       OSM      C10F     CEL1    -0.150000       12.0110           0
      1433 MEMB     14       OSM      H10F     HEL1     0.150000       1.00800           0
      1434 MEMB     14       OSM      C11F     CTL2    -0.180000       12.0110           0
      1435 MEMB     14       OSM      H11F     HAL2     0.900000E-01   1.00800           0
      1436 MEMB     14       OSM      H11G     HAL2     0.900000E-01   1.00800           0
      1437 MEMB     14       OSM      C12F     CTL2    -0.180000       12.0110           0
      1438 MEMB     14       OSM      H12F     HAL2     0.900000E-01   1.00800           0
      1439 MEMB     14       OSM      H12G     HAL2     0.900000E-01   1.00800           0
      1440 MEMB     14       OSM      C13F     CTL2    -0.180000       12.0110           0
      1441 MEMB     14       OSM      H13F     HAL2     0.900000E-01   1.00800           0
      1442 MEMB     14       OSM      H13G     HAL2     0.900000E-01   1.00800           0
      1443 MEMB     14       OSM      C14F     CTL2    -0.180000       12.0110           0
      1444 MEMB     14       OSM      H14F     HAL2     0.900000E-01   1.00800           0
      1445 MEMB     14       OSM      H14G     HAL2     0.900000E-01   1.00800           0
      1446 MEMB     14       OSM      C15F     CTL2    -0.180000       12.0110           0
      1447 MEMB     14       OSM      H15F     HAL2     0.900000E-01   1.00800           0
      1448 MEMB     14       OSM      H15G     HAL2     0.900000E-01   1.00800           0
      1449 MEMB     14       OSM      C16F     CTL2    -0.180000       12.0110           0
      1450 MEMB     14       OSM      H16F     HAL2     0.900000E-01   1.00800           0
      1451 MEMB     14       OSM      H16G     HAL2     0.900000E-01   1.00800           0
      1452 MEMB     14       OSM      C17F     CTL2    -0.180000       12.0110           0
      1453 MEMB     14       OSM      H17F     HAL2     0.900000E-01   1.00800           0
      1454 MEMB     14       OSM      H17G     HAL2     0.900000E-01   1.00800           0
      1455 MEMB     14       OSM      C18F     CTL3    -0.270000       12.0110           0
      1456 MEMB     14       OSM      H18F     HAL3     0.900000E-01   1.00800           0
      1457 MEMB     14       OSM      H18G     HAL3     0.900000E-01   1.00800           0
      1458 MEMB     14       OSM      H18H     HAL3     0.900000E-01   1.00800           0
      1459 MEMB     15       SAPS     N        NH3L    -0.300000       14.0070           0
      1460 MEMB     15       SAPS     HN1      HCL      0.330000       1.00800           0
      1461 MEMB     15       SAPS     HN2      HCL      0.330000       1.00800           0
      1462 MEMB     15       SAPS     HN3      HCL      0.330000       1.00800           0
      1463 MEMB     15       SAPS     C12      CTL1     0.210000       12.0110           0
      1464 MEMB     15       SAPS     H12A     HBL      0.100000       1.00800           0
      1465 MEMB     15       SAPS     C13      CCL      0.340000       12.0110           0
      1466 MEMB     15       SAPS     O13A     OCL     -0.670000       15.9994           0
      1467 MEMB     15       SAPS     O13B     OCL     -0.670000       15.9994           0
      1468 MEMB     15       SAPS     C11      CTL2    -0.800000E-01   12.0110           0
      1469 MEMB     15       SAPS     H11A     HAL2     0.900000E-01   1.00800           0
      1470 MEMB     15       SAPS     H11B     HAL2     0.900000E-01   1.00800           0
      1471 MEMB     15       SAPS     P        PL        1.50000       30.9740           0
      1472 MEMB     15       SAPS     O13      O2L     -0.780000       15.9994           0
      1473 MEMB     15       SAPS     O14      O2L     -0.780000       15.9994           0
      1474 MEMB     15       SAPS     O12      OSLP    -0.570000       15.9994           0
      1475 MEMB     15       SAPS     O11      OSLP    -0.570000       15.9994           0
      1476 MEMB     15       SAPS     C1       CTL2    -0.800000E-01   12.0110           0
      1477 MEMB     15       SAPS     HA       HAL2     0.900000E-01   1.00800           0
      1478 MEMB     15       SAPS     HB       HAL2     0.900000E-01   1.00800           0
      1479 MEMB     15       SAPS     C2       CTL1     0.170000       12.0110           0
      1480 MEMB     15       SAPS     HS       HAL1     0.900000E-01   1.00800           0
      1481 MEMB     15       SAPS     O21      OSL     -0.490000       15.9994           0
      1482 MEMB     15       SAPS     C21      CL       0.900000       12.0110           0
      1483 MEMB     15       SAPS     O22      OBL     -0.630000       15.9994           0
      1484 MEMB     15       SAPS     C22      CTL2    -0.220000       12.0110           0
      1485 MEMB     15       SAPS     H2R      HAL2     0.900000E-01   1.00800           0
      1486 MEMB     15       SAPS     H2S      HAL2     0.900000E-01   1.00800           0
      1487 MEMB     15       SAPS     C3       CTL2     0.800000E-01   12.0110           0
      1488 MEMB     15       SAPS     HX       HAL2     0.900000E-01   1.00800           0
      1489 MEMB     15       SAPS     HY       HAL2     0.900000E-01   1.00800           0
      1490 MEMB     15       SAPS     O31      OSL     -0.490000       15.9994           0
      1491 MEMB     15       SAPS     C31      CL       0.900000       12.0110           0
      1492 MEMB     15       SAPS     O32      OBL     -0.630000       15.9994           0
      1493 MEMB     15       SAPS     C32      CTL2    -0.220000       12.0110           0
      1494 MEMB     15       SAPS     H2X      HAL2     0.900000E-01   1.00800           0
      1495 MEMB     15       SAPS     H2Y      HAL2     0.900000E-01   1.00800           0
      1496 MEMB     15       SAPS     C23      CTL2    -0.180000       12.0110           0
      1497 MEMB     15       SAPS     H3R      HAL2     0.900000E-01   1.00800           0
      1498 MEMB     15       SAPS     H3S      HAL2     0.900000E-01   1.00800           0
      1499 MEMB     15       SAPS     C24      CTL2    -0.180000       12.0110           0
      1500 MEMB     15       SAPS     H4R      HAL2     0.900000E-01   1.00800           0
      1501 MEMB     15       SAPS     H4S      HAL2     0.900000E-01   1.00800           0
      1502 MEMB     15       SAPS     C25      CEL1    -0.150000       12.0110           0
      1503 MEMB     15       SAPS     H5R      HEL1     0.150000       1.00800           0
      1504 MEMB     15       SAPS     C26      CEL1    -0.150000       12.0110           0
      1505 MEMB     15       SAPS     H6R      HEL1     0.150000       1.00800           0
      1506 MEMB     15       SAPS     C27      CTL2    -0.180000       12.0110           0
      1507 MEMB     15       SAPS     H7R      HAL2     0.900000E-01   1.00800           0
      1508 MEMB     15       SAPS     H7S      HAL2     0.900000E-01   1.00800           0
      1509 MEMB     15       SAPS     C28      CEL1    -0.150000       12.0110           0
      1510 MEMB     15       SAPS     H8R      HEL1     0.150000       1.00800           0
      1511 MEMB     15       SAPS     C29      CEL1    -0.150000       12.0110           0
      1512 MEMB     15       SAPS     H9R      HEL1     0.150000       1.00800           0
      1513 MEMB     15       SAPS     C210     CTL2    -0.180000       12.0110           0
      1514 MEMB     15       SAPS     H10R     HAL2     0.900000E-01   1.00800           0
      1515 MEMB     15       SAPS     H10S     HAL2     0.900000E-01   1.00800           0
      1516 MEMB     15       SAPS     C211     CEL1    -0.150000       12.0110           0
      1517 MEMB     15       SAPS     H11R     HEL1     0.150000       1.00800           0
      1518 MEMB     15       SAPS     C212     CEL1    -0.150000       12.0110           0
      1519 MEMB     15       SAPS     H12R     HEL1     0.150000       1.00800           0
      1520 MEMB     15       SAPS     C213     CTL2    -0.180000       12.0110           0
      1521 MEMB     15       SAPS     H13R     HAL2     0.900000E-01   1.00800           0
      1522 MEMB     15       SAPS     H13S     HAL2     0.900000E-01   1.00800           0
      1523 MEMB     15       SAPS     C214     CEL1    -0.150000       12.0110           0
      1524 MEMB     15       SAPS     H14R     HEL1     0.150000       1.00800           0
      1525 MEMB     15       SAPS     C215     CEL1    -0.150000       12.0110           0
      1526 MEMB     15       SAPS     H15R     HEL1     0.150000       1.00800           0
      1527 MEMB     15       SAPS     C216     CTL2    -0.180000       12.0110           0
      1528 MEMB     15       SAPS     H16R     HAL2     0.900000E-01   1.00800           0
      1529 MEMB     15       SAPS     H16S     HAL2     0.900000E-01   1.00800           0
      1530 MEMB     15       SAPS     C217     CTL2    -0.180000       12.0110           0
      1531 MEMB     15       SAPS     H17R     HAL2     0.900000E-01   1.00800           0
      1532 MEMB     15       SAPS     H17S     HAL2     0.900000E-01   1.00800           0
      1533 MEMB     15       SAPS     C218     CTL2    -0.180000       12.0110           0
      1534 MEMB     15       SAPS     H18R     HAL2     0.900000E-01   1.00800           0
      1535 MEMB     15       SAPS     H18S     HAL2     0.900000E-01   1.00800           0
      1536 MEMB     15       SAPS     C219     CTL2    -0.180000       12.0110           0
      1537 MEMB     15       SAPS     H19R     HAL2     0.900000E-01   1.00800           0
      1538 MEMB     15       SAPS     H19S     HAL2     0.900000E-01   1.00800           0
      1539 MEMB     15       SAPS     C220     CTL3    -0.270000       12.0110           0
      1540 MEMB     15       SAPS     H20R     HAL3     0.900000E-01   1.00800           0
      1541 MEMB     15       SAPS     H20S     HAL3     0.900000E-01   1.00800           0
      1542 MEMB     15       SAPS     H20T     HAL3     0.900000E-01   1.00800           0
      1543 MEMB     15       SAPS     C33      CTL2    -0.180000       12.0110           0
      1544 MEMB     15       SAPS     H3X      HAL2     0.900000E-01   1.00800           0
      1545 MEMB     15       SAPS     H3Y      HAL2     0.900000E-01   1.00800           0
      1546 MEMB     15       SAPS     C34      CTL2    -0.180000       12.0110           0
      1547 MEMB     15       SAPS     H4X      HAL2     0.900000E-01   1.00800           0
      1548 MEMB     15       SAPS     H4Y      HAL2     0.900000E-01   1.00800           0
      1549 MEMB     15       SAPS     C35      CTL2    -0.180000       12.0110           0
      1550 MEMB     15       SAPS     H5X      HAL2     0.900000E-01   1.00800           0
      1551 MEMB     15       SAPS     H5Y      HAL2     0.900000E-01   1.00800           0
      1552 MEMB     15       SAPS     C36      CTL2    -0.180000       12.0110           0
      1553 MEMB     15       SAPS     H6X      HAL2     0.900000E-01   1.00800           0
      1554 MEMB     15       SAPS     H6Y      HAL2     0.900000E-01   1.00800           0
      1555 MEMB     15       SAPS     C37      CTL2    -0.180000       12.0110           0
      1556 MEMB     15       SAPS     H7X      HAL2     0.900000E-01   1.00800           0
      1557 MEMB     15       SAPS     H7Y      HAL2     0.900000E-01   1.00800           0
      1558 MEMB     15       SAPS     C38      CTL2    -0.180000       12.0110           0
      1559 MEMB     15       SAPS     H8X      HAL2     0.900000E-01   1.00800           0
      1560 MEMB     15       SAPS     H8Y      HAL2     0.900000E-01   1.00800           0
      1561 MEMB     15       SAPS     C39      CTL2    -0.180000       12.0110           0
      1562 MEMB     15       SAPS     H9X      HAL2     0.900000E-01   1.00800           0
      1563 MEMB     15       SAPS     H9Y      HAL2     0.900000E-01   1.00800           0
      1564 MEMB     15       SAPS     C310     CTL2    -0.180000       12.0110           0
      1565 MEMB     15       SAPS     H10X     HAL2     0.900000E-01   1.00800           0
      1566 MEMB     15       SAPS     H10Y     HAL2     0.900000E-01   1.00800           0
      1567 MEMB     15       SAPS     C311     CTL2    -0.180000       12.0110           0
      1568 MEMB     15       SAPS     H11X     HAL2     0.900000E-01   1.00800           0
      1569 MEMB     15       SAPS     H11Y     HAL2     0.900000E-01   1.00800           0
      1570 MEMB     15       SAPS     C312     CTL2    -0.180000       12.0110           0
      1571 MEMB     15       SAPS     H12X     HAL2     0.900000E-01   1.00800           0
      1572 MEMB     15       SAPS     H12Y     HAL2     0.900000E-01   1.00800           0
      1573 MEMB     15       SAPS     C313     CTL2    -0.180000       12.0110           0
      1574 MEMB     15       SAPS     H13X     HAL2     0.900000E-01   1.00800           0
      1575 MEMB     15       SAPS     H13Y     HAL2     0.900000E-01   1.00800           0
      1576 MEMB     15       SAPS     C314     CTL2    -0.180000       12.0110           0
      1577 MEMB     15       SAPS     H14X     HAL2     0.900000E-01   1.00800           0
      1578 MEMB     15       SAPS     H14Y     HAL2     0.900000E-01   1.00800           0
      1579 MEMB     15       SAPS     C315     CTL2    -0.180000       12.0110           0
      1580 MEMB     15       SAPS     H15X     HAL2     0.900000E-01   1.00800           0
      1581 MEMB     15       SAPS     H15Y     HAL2     0.900000E-01   1.00800           0
      1582 MEMB     15       SAPS     C316     CTL2    -0.180000       12.0110           0
      1583 MEMB     15       SAPS     H16X     HAL2     0.900000E-01   1.00800           0
      1584 MEMB     15       SAPS     H16Y     HAL2     0.900000E-01   1.00800           0
      1585 MEMB     15       SAPS     C317     CTL2    -0.180000       12.0110           0
      1586 MEMB     15       SAPS     H17X     HAL2     0.900000E-01   1.00800           0
      1587 MEMB     15       SAPS     H17Y     HAL2     0.900000E-01   1.00800           0
      1588 MEMB     15       SAPS     C318     CTL3    -0.270000       12.0110           0
      1589 MEMB     15       SAPS     H18X     HAL3     0.900000E-01   1.00800           0
      1590 MEMB     15       SAPS     H18Y     HAL3     0.900000E-01   1.00800           0
      1591 MEMB     15       SAPS     H18Z     HAL3     0.900000E-01   1.00800           0
      1592 MEMB     16       OSM      N        NTL     -0.600000       14.0070           0
      1593 MEMB     16       OSM      C15      CTL5    -0.350000       12.0110           0
      1594 MEMB     16       OSM      H15A     HL       0.250000       1.00800           0
      1595 MEMB     16       OSM      H15B     HL       0.250000       1.00800           0
      1596 MEMB     16       OSM      H15C     HL       0.250000       1.00800           0
      1597 MEMB     16       OSM      C14      CTL5    -0.350000       12.0110           0
      1598 MEMB     16       OSM      H14A     HL       0.250000       1.00800           0
      1599 MEMB     16       OSM      H14B     HL       0.250000       1.00800           0
      1600 MEMB     16       OSM      H14C     HL       0.250000       1.00800           0
      1601 MEMB     16       OSM      C13      CTL5    -0.350000       12.0110           0
      1602 MEMB     16       OSM      H13A     HL       0.250000       1.00800           0
      1603 MEMB     16       OSM      H13B     HL       0.250000       1.00800           0
      1604 MEMB     16       OSM      H13C     HL       0.250000       1.00800           0
      1605 MEMB     16       OSM      C12      CTL2    -0.100000       12.0110           0
      1606 MEMB     16       OSM      H12A     HL       0.250000       1.00800           0
      1607 MEMB     16       OSM      H12B     HL       0.250000       1.00800           0
      1608 MEMB     16       OSM      C11      CTL2    -0.800000E-01   12.0110           0
      1609 MEMB     16       OSM      H11A     HAL2     0.900000E-01   1.00800           0
      1610 MEMB     16       OSM      H11B     HAL2     0.900000E-01   1.00800           0
      1611 MEMB     16       OSM      P        PL        1.50000       30.9740           0
      1612 MEMB     16       OSM      O13      O2L     -0.780000       15.9994           0
      1613 MEMB     16       OSM      O14      O2L     -0.780000       15.9994           0
      1614 MEMB     16       OSM      O11      OSLP    -0.570000       15.9994           0
      1615 MEMB     16       OSM      O12      OSLP    -0.570000       15.9994           0
      1616 MEMB     16       OSM      C1S      CTL2    -0.800000E-01   12.0110           0
      1617 MEMB     16       OSM      H1S      HAL2     0.900000E-01   1.00800           0
      1618 MEMB     16       OSM      H1T      HAL2     0.900000E-01   1.00800           0
      1619 MEMB     16       OSM      NF       NHL     -0.700000       14.0070           0
      1620 MEMB     16       OSM      HNF      H        0.350000       1.00800           0
      1621 MEMB     16       OSM      C2S      CTL1     0.300000       12.0110           0
      1622 MEMB     16       OSM      H2S      HAL1     0.500000E-01   1.00800           0
      1623 MEMB     16       OSM      C3S      CTO1     0.500000       12.0110           0
      1624 MEMB     16       OSM      H3S      HAL1    -0.110000       1.00800           0
      1625 MEMB     16       OSM      O3       OHL     -0.690000       15.9994           0
      1626 MEMB     16       OSM      HO3      HOL      0.300000       1.00800           0
      1627 MEMB     16       OSM      C4S      CEL3    -0.150000       12.0110           0
      1628 MEMB     16       OSM      H4S      HEL1     0.150000       1.00800           0
      1629 MEMB     16       OSM      C5S      CEL3    -0.150000       12.0110           0
      1630 MEMB     16       OSM      H5S      HEL1     0.150000       1.00800           0
      1631 MEMB     16       OSM      C6S      CTL2    -0.180000       12.0110           0
      1632 MEMB     16       OSM      H6S      HAL2     0.900000E-01   1.00800           0
      1633 MEMB     16       OSM      H6T      HAL2     0.900000E-01   1.00800           0
      1634 MEMB     16       OSM      C7S      CTL2    -0.180000       12.0110           0
      1635 MEMB     16       OSM      H7S      HAL2     0.900000E-01   1.00800           0
      1636 MEMB     16       OSM      H7T      HAL2     0.900000E-01   1.00800           0
      1637 MEMB     16       OSM      C8S      CTL2    -0.180000       12.0110           0
      1638 MEMB     16       OSM      H8S      HAL2     0.900000E-01   1.00800           0
      1639 MEMB     16       OSM      H8T      HAL2     0.900000E-01   1.00800           0
      1640 MEMB     16       OSM      C9S      CTL2    -0.180000       12.0110           0
      1641 MEMB     16       OSM      H9S      HAL2     0.900000E-01   1.00800           0
      1642 MEMB     16       OSM      H9T      HAL2     0.900000E-01   1.00800           0
      1643 MEMB     16       OSM      C10S     CTL2    -0.180000       12.0110           0
      1644 MEMB     16       OSM      H10S     HAL2     0.900000E-01   1.00800           0
      1645 MEMB     16       OSM      H10T     HAL2     0.900000E-01   1.00800           0
      1646 MEMB     16       OSM      C11S     CTL2    -0.180000       12.0110           0
      1647 MEMB     16       OSM      H11S     HAL2     0.900000E-01   1.00800           0
      1648 MEMB     16       OSM      H11T     HAL2     0.900000E-01   1.00800           0
      1649 MEMB     16       OSM      C12S     CTL2    -0.180000       12.0110           0
      1650 MEMB     16       OSM      H12S     HAL2     0.900000E-01   1.00800           0
      1651 MEMB     16       OSM      H12T     HAL2     0.900000E-01   1.00800           0
      1652 MEMB     16       OSM      C13S     CTL2    -0.180000       12.0110           0
      1653 MEMB     16       OSM      H13S     HAL2     0.900000E-01   1.00800           0
      1654 MEMB     16       OSM      H13T     HAL2     0.900000E-01   1.00800           0
      1655 MEMB     16       OSM      C14S     CTL2    -0.180000       12.0110           0
      1656 MEMB     16       OSM      H14S     HAL2     0.900000E-01   1.00800           0
      1657 MEMB     16       OSM      H14T     HAL2     0.900000E-01   1.00800           0
      1658 MEMB     16       OSM      C15S     CTL2    -0.180000       12.0110           0
      1659 MEMB     16       OSM      H15S     HAL2     0.900000E-01   1.00800           0
      1660 MEMB     16       OSM      H15T     HAL2     0.900000E-01   1.00800           0
      1661 MEMB     16       OSM      C16S     CTL2    -0.180000       12.0110           0
      1662 MEMB     16       OSM      H16S     HAL2     0.900000E-01   1.00800           0
      1663 MEMB     16       OSM      H16T     HAL2     0.900000E-01   1.00800           0
      1664 MEMB     16       OSM      C17S     CTL2    -0.180000       12.0110           0
      1665 MEMB     16       OSM      H17S     HAL2     0.900000E-01   1.00800           0
      1666 MEMB     16       OSM      H17T     HAL2     0.900000E-01   1.00800           0
      1667 MEMB     16       OSM      C18S     CTL3    -0.270000       12.0110           0
      1668 MEMB     16       OSM      H18S     HAL3     0.900000E-01   1.00800           0
      1669 MEMB     16       OSM      H18T     HAL3     0.900000E-01   1.00800           0
      1670 MEMB     16       OSM      H18U     HAL3     0.900000E-01   1.00800           0
      1671 MEMB     16       OSM      C1F      C        0.550000       12.0110           0
      1672 MEMB     16       OSM      OF       O       -0.600000       15.9994           0
      1673 MEMB     16       OSM      C2F      CTL2    -0.700000E-01   12.0110           0
      1674 MEMB     16       OSM      H2F      HAL2     0.600000E-01   1.00800           0
      1675 MEMB     16       OSM      H2G      HAL2     0.600000E-01   1.00800           0
      1676 MEMB     16       OSM      C3F      CTL2    -0.180000       12.0110           0
      1677 MEMB     16       OSM      H3F      HAL2     0.900000E-01   1.00800           0
      1678 MEMB     16       OSM      H3G      HAL2     0.900000E-01   1.00800           0
      1679 MEMB     16       OSM      C4F      CTL2    -0.180000       12.0110           0
      1680 MEMB     16       OSM      H4F      HAL2     0.900000E-01   1.00800           0
      1681 MEMB     16       OSM      H4G      HAL2     0.900000E-01   1.00800           0
      1682 MEMB     16       OSM      C5F      CTL2    -0.180000       12.0110           0
      1683 MEMB     16       OSM      H5F      HAL2     0.900000E-01   1.00800           0
      1684 MEMB     16       OSM      H5G      HAL2     0.900000E-01   1.00800           0
      1685 MEMB     16       OSM      C6F      CTL2    -0.180000       12.0110           0
      1686 MEMB     16       OSM      H6F      HAL2     0.900000E-01   1.00800           0
      1687 MEMB     16       OSM      H6G      HAL2     0.900000E-01   1.00800           0
      1688 MEMB     16       OSM      C7F      CTL2    -0.180000       12.0110           0
      1689 MEMB     16       OSM      H7F      HAL2     0.900000E-01   1.00800           0
      1690 MEMB     16       OSM      H7G      HAL2     0.900000E-01   1.00800           0
      1691 MEMB     16       OSM      C8F      CTL2    -0.180000       12.0110           0
      1692 MEMB     16       OSM      H8F      HAL2     0.900000E-01   1.00800           0
      1693 MEMB     16       OSM      H8G      HAL2     0.900000E-01   1.00800           0
      1694 MEMB     16       OSM      C9F      CEL1    -0.150000       12.0110           0
      1695 MEMB     16       OSM      H9F      HEL1     0.150000       1.00800           0
      1696 MEMB     16       OSM      C10F     CEL1    -0.150000       12.0110           0
      1697 MEMB     16       OSM      H10F     HEL1     0.150000       1.00800           0
      1698 MEMB     16       OSM      C11F     CTL2    -0.180000       12.0110           0
      1699 MEMB     16       OSM      H11F     HAL2     0.900000E-01   1.00800           0
      1700 MEMB     16       OSM      H11G     HAL2     0.900000E-01   1.00800           0
      1701 MEMB     16       OSM      C12F     CTL2    -0.180000       12.0110           0
      1702 MEMB     16       OSM      H12F     HAL2     0.900000E-01   1.00800           0
      1703 MEMB     16       OSM      H12G     HAL2     0.900000E-01   1.00800           0
      1704 MEMB     16       OSM      C13F     CTL2    -0.180000       12.0110           0
      1705 MEMB     16       OSM      H13F     HAL2     0.900000E-01   1.00800           0
      1706 MEMB     16       OSM      H13G     HAL2     0.900000E-01   1.00800           0
      1707 MEMB     16       OSM      C14F     CTL2    -0.180000       12.0110           0
      1708 MEMB     16       OSM      H14F     HAL2     0.900000E-01   1.00800           0
      1709 MEMB     16       OSM      H14G     HAL2     0.900000E-01   1.00800           0
      1710 MEMB     16       OSM      C15F     CTL2    -0.180000       12.0110           0
      1711 MEMB     16       OSM      H15F     HAL2     0.900000E-01   1.00800           0
      1712 MEMB     16       OSM      H15G     HAL2     0.900000E-01   1.00800           0
      1713 MEMB     16       OSM      C16F     CTL2    -0.180000       12.0110           0
      1714 MEMB     16       OSM      H16F     HAL2     0.900000E-01   1.00800           0
      1715 MEMB     16       OSM      H16G     HAL2     0.900000E-01   1.00800           0
      1716 MEMB     16       OSM      C17F     CTL2    -0.180000       12.0110           0
      1717 MEMB     16       OSM      H17F     HAL2     0.900000E-01   1.00800           0
      1718 MEMB     16       OSM      H17G     HAL2     0.900000E-01   1.00800           0
      1719 MEMB     16       OSM      C18F     CTL3    -0.270000       12.0110           0
      1720 MEMB     16       OSM      H18F     HAL3     0.900000E-01   1.00800           0
      1721 MEMB     16       OSM      H18G     HAL3     0.900000E-01   1.00800           0
      1722 MEMB     16       OSM      H18H     HAL3     0.900000E-01   1.00800           0
      1723 MEMB     17       CHL1     C3       CRL1     0.140000       12.0110           0
      1724 MEMB     17       CHL1     H3       HGA1     0.900000E-01   1.00800           0
      1725 MEMB     17       CHL1     O3       OHL     -0.660000       15.9994           0
      1726 MEMB     17       CHL1     H3'      HOL      0.430000       1.00800           0
      1727 MEMB     17       CHL1     C4       CRL2    -0.180000       12.0110           0
      1728 MEMB     17       CHL1     H4A      HGA2     0.900000E-01   1.00800           0
      1729 MEMB     17       CHL1     H4B      HGA2     0.900000E-01   1.00800           0
      1730 MEMB     17       CHL1     C5       CEL1      0.00000       12.0110           0
      1731 MEMB     17       CHL1     C6       CEL1    -0.150000       12.0110           0
      1732 MEMB     17       CHL1     H6       HEL1     0.150000       1.00800           0
      1733 MEMB     17       CHL1     C7       CRL2    -0.180000       12.0110           0
      1734 MEMB     17       CHL1     H7A      HGA2     0.900000E-01   1.00800           0
      1735 MEMB     17       CHL1     H7B      HGA2     0.900000E-01   1.00800           0
      1736 MEMB     17       CHL1     C8       CRL1    -0.900000E-01   12.0110           0
      1737 MEMB     17       CHL1     H8       HGA1     0.900000E-01   1.00800           0
      1738 MEMB     17       CHL1     C14      CRL1    -0.900000E-01   12.0110           0
      1739 MEMB     17       CHL1     H14      HGA1     0.900000E-01   1.00800           0
      1740 MEMB     17       CHL1     C15      CRL2    -0.180000       12.0110           0
      1741 MEMB     17       CHL1     H15A     HGA2     0.900000E-01   1.00800           0
      1742 MEMB     17       CHL1     H15B     HGA2     0.900000E-01   1.00800           0
      1743 MEMB     17       CHL1     C16      CRL2    -0.180000       12.0110           0
      1744 MEMB     17       CHL1     H16A     HGA2     0.900000E-01   1.00800           0
      1745 MEMB     17       CHL1     H16B     HGA2     0.900000E-01   1.00800           0
      1746 MEMB     17       CHL1     C17      CRL1    -0.900000E-01   12.0110           0
      1747 MEMB     17       CHL1     H17      HGA1     0.900000E-01   1.00800           0
      1748 MEMB     17       CHL1     C13      CRL1      0.00000       12.0110           0
      1749 MEMB     17       CHL1     C18      CTL3    -0.270000       12.0110           0
      1750 MEMB     17       CHL1     H18A     HAL3     0.900000E-01   1.00800           0
      1751 MEMB     17       CHL1     H18B     HAL3     0.900000E-01   1.00800           0
      1752 MEMB     17       CHL1     H18C     HAL3     0.900000E-01   1.00800           0
      1753 MEMB     17       CHL1     C12      CRL2    -0.180000       12.0110           0
      1754 MEMB     17       CHL1     H12A     HGA2     0.900000E-01   1.00800           0
      1755 MEMB     17       CHL1     H12B     HGA2     0.900000E-01   1.00800           0
      1756 MEMB     17       CHL1     C11      CRL2    -0.180000       12.0110           0
      1757 MEMB     17       CHL1     H11A     HGA2     0.900000E-01   1.00800           0
      1758 MEMB     17       CHL1     H11B     HGA2     0.900000E-01   1.00800           0
      1759 MEMB     17       CHL1     C9       CRL1    -0.900000E-01   12.0110           0
      1760 MEMB     17       CHL1     H9       HGA1     0.900000E-01   1.00800           0
      1761 MEMB     17       CHL1     C10      CRL1      0.00000       12.0110           0
      1762 MEMB     17       CHL1     C19      CTL3    -0.270000       12.0110           0
      1763 MEMB     17       CHL1     H19A     HAL3     0.900000E-01   1.00800           0
      1764 MEMB     17       CHL1     H19B     HAL3     0.900000E-01   1.00800           0
      1765 MEMB     17       CHL1     H19C     HAL3     0.900000E-01   1.00800           0
      1766 MEMB     17       CHL1     C1       CRL2    -0.180000       12.0110           0
      1767 MEMB     17       CHL1     H1A      HGA2     0.900000E-01   1.00800           0
      1768 MEMB     17       CHL1     H1B      HGA2     0.900000E-01   1.00800           0
      1769 MEMB     17       CHL1     C2       CRL2    -0.180000       12.0110           0
      1770 MEMB     17       CHL1     H2A      HGA2     0.900000E-01   1.00800           0
      1771 MEMB     17       CHL1     H2B      HGA2     0.900000E-01   1.00800           0
      1772 MEMB     17       CHL1     C20      CTL1    -0.900000E-01   12.0110           0
      1773 MEMB     17       CHL1     H20      HAL1     0.900000E-01   1.00800           0
      1774 MEMB     17       CHL1     C21      CTL3    -0.270000       12.0110           0
      1775 MEMB     17       CHL1     H21A     HAL3     0.900000E-01   1.00800           0
      1776 MEMB     17       CHL1     H21B     HAL3     0.900000E-01   1.00800           0
      1777 MEMB     17       CHL1     H21C     HAL3     0.900000E-01   1.00800           0
      1778 MEMB     17       CHL1     C22      CTL2    -0.180000       12.0110           0
      1779 MEMB     17       CHL1     H22A     HAL2     0.900000E-01   1.00800           0
      1780 MEMB     17       CHL1     H22B     HAL2     0.900000E-01   1.00800           0
      1781 MEMB     17       CHL1     C23      CTL2    -0.180000       12.0110           0
      1782 MEMB     17       CHL1     H23A     HAL2     0.900000E-01   1.00800           0
      1783 MEMB     17       CHL1     H23B     HAL2     0.900000E-01   1.00800           0
      1784 MEMB     17       CHL1     C24      CTL2    -0.180000       12.0110           0
      1785 MEMB     17       CHL1     H24A     HAL2     0.900000E-01   1.00800           0
      1786 MEMB     17       CHL1     H24B     HAL2     0.900000E-01   1.00800           0
      1787 MEMB     17       CHL1     C25      CTL1    -0.900000E-01   12.0110           0
      1788 MEMB     17       CHL1     H25      HAL1     0.900000E-01   1.00800           0
      1789 MEMB     17       CHL1     C26      CTL3    -0.270000       12.0110           0
      1790 MEMB     17       CHL1     H26A     HAL3     0.900000E-01   1.00800           0
      1791 MEMB     17       CHL1     H26B     HAL3     0.900000E-01   1.00800           0
      1792 MEMB     17       CHL1     H26C     HAL3     0.900000E-01   1.00800           0
      1793 MEMB     17       CHL1     C27      CTL3    -0.270000       12.0110           0
      1794 MEMB     17       CHL1     H27A     HAL3     0.900000E-01   1.00800           0
      1795 MEMB     17       CHL1     H27B     HAL3     0.900000E-01   1.00800           0
      1796 MEMB     17       CHL1     H27C     HAL3     0.900000E-01   1.00800           0
      1797 MEMB     18       CHL1     C3       CRL1     0.140000       12.0110           0
      1798 MEMB     18       CHL1     H3       HGA1     0.900000E-01   1.00800           0
      1799 MEMB     18       CHL1     O3       OHL     -0.660000       15.9994           0
      1800 MEMB     18       CHL1     H3'      HOL      0.430000       1.00800           0
      1801 MEMB     18       CHL1     C4       CRL2    -0.180000       12.0110           0
      1802 MEMB     18       CHL1     H4A      HGA2     0.900000E-01   1.00800           0
      1803 MEMB     18       CHL1     H4B      HGA2     0.900000E-01   1.00800           0
      1804 MEMB     18       CHL1     C5       CEL1      0.00000       12.0110           0
      1805 MEMB     18       CHL1     C6       CEL1    -0.150000       12.0110           0
      1806 MEMB     18       CHL1     H6       HEL1     0.150000       1.00800           0
      1807 MEMB     18       CHL1     C7       CRL2    -0.180000       12.0110           0
      1808 MEMB     18       CHL1     H7A      HGA2     0.900000E-01   1.00800           0
      1809 MEMB     18       CHL1     H7B      HGA2     0.900000E-01   1.00800           0
      1810 MEMB     18       CHL1     C8       CRL1    -0.900000E-01   12.0110           0
      1811 MEMB     18       CHL1     H8       HGA1     0.900000E-01   1.00800           0
      1812 MEMB     18       CHL1     C14      CRL1    -0.900000E-01   12.0110           0
      1813 MEMB     18       CHL1     H14      HGA1     0.900000E-01   1.00800           0
      1814 MEMB     18       CHL1     C15      CRL2    -0.180000       12.0110           0
      1815 MEMB     18       CHL1     H15A     HGA2     0.900000E-01   1.00800           0
      1816 MEMB     18       CHL1     H15B     HGA2     0.900000E-01   1.00800           0
      1817 MEMB     18       CHL1     C16      CRL2    -0.180000       12.0110           0
      1818 MEMB     18       CHL1     H16A     HGA2     0.900000E-01   1.00800           0
      1819 MEMB     18       CHL1     H16B     HGA2     0.900000E-01   1.00800           0
      1820 MEMB     18       CHL1     C17      CRL1    -0.900000E-01   12.0110           0
      1821 MEMB     18       CHL1     H17      HGA1     0.900000E-01   1.00800           0
      1822 MEMB     18       CHL1     C13      CRL1      0.00000       12.0110           0
      1823 MEMB     18       CHL1     C18      CTL3    -0.270000       12.0110           0
      1824 MEMB     18       CHL1     H18A     HAL3     0.900000E-01   1.00800           0
      1825 MEMB     18       CHL1     H18B     HAL3     0.900000E-01   1.00800           0
      1826 MEMB     18       CHL1     H18C     HAL3     0.900000E-01   1.00800           0
      1827 MEMB     18       CHL1     C12      CRL2    -0.180000       12.0110           0
      1828 MEMB     18       CHL1     H12A     HGA2     0.900000E-01   1.00800           0
      1829 MEMB     18       CHL1     H12B     HGA2     0.900000E-01   1.00800           0
      1830 MEMB     18       CHL1     C11      CRL2    -0.180000       12.0110           0
      1831 MEMB     18       CHL1     H11A     HGA2     0.900000E-01   1.00800           0
      1832 MEMB     18       CHL1     H11B     HGA2     0.900000E-01   1.00800           0
      1833 MEMB     18       CHL1     C9       CRL1    -0.900000E-01   12.0110           0
      1834 MEMB     18       CHL1     H9       HGA1     0.900000E-01   1.00800           0
      1835 MEMB     18       CHL1     C10      CRL1      0.00000       12.0110           0
      1836 MEMB     18       CHL1     C19      CTL3    -0.270000       12.0110           0
      1837 MEMB     18       CHL1     H19A     HAL3     0.900000E-01   1.00800           0
      1838 MEMB     18       CHL1     H19B     HAL3     0.900000E-01   1.00800           0
      1839 MEMB     18       CHL1     H19C     HAL3     0.900000E-01   1.00800           0
      1840 MEMB     18       CHL1     C1       CRL2    -0.180000       12.0110           0
      1841 MEMB     18       CHL1     H1A      HGA2     0.900000E-01   1.00800           0
      1842 MEMB     18       CHL1     H1B      HGA2     0.900000E-01   1.00800           0
      1843 MEMB     18       CHL1     C2       CRL2    -0.180000       12.0110           0
      1844 MEMB     18       CHL1     H2A      HGA2     0.900000E-01   1.00800           0
      1845 MEMB     18       CHL1     H2B      HGA2     0.900000E-01   1.00800           0
      1846 MEMB     18       CHL1     C20      CTL1    -0.900000E-01   12.0110           0
      1847 MEMB     18       CHL1     H20      HAL1     0.900000E-01   1.00800           0
      1848 MEMB     18       CHL1     C21      CTL3    -0.270000       12.0110           0
      1849 MEMB     18       CHL1     H21A     HAL3     0.900000E-01   1.00800           0
      1850 MEMB     18       CHL1     H21B     HAL3     0.900000E-01   1.00800           0
      1851 MEMB     18       CHL1     H21C     HAL3     0.900000E-01   1.00800           0
      1852 MEMB     18       CHL1     C22      CTL2    -0.180000       12.0110           0
      1853 MEMB     18       CHL1     H22A     HAL2     0.900000E-01   1.00800           0
      1854 MEMB     18       CHL1     H22B     HAL2     0.900000E-01   1.00800           0
      1855 MEMB     18       CHL1     C23      CTL2    -0.180000       12.0110           0
      1856 MEMB     18       CHL1     H23A     HAL2     0.900000E-01   1.00800           0
      1857 MEMB     18       CHL1     H23B     HAL2     0.900000E-01   1.00800           0
      1858 MEMB     18       CHL1     C24      CTL2    -0.180000       12.0110           0
      1859 MEMB     18       CHL1     H24A     HAL2     0.900000E-01   1.00800           0
      1860 MEMB     18       CHL1     H24B     HAL2     0.900000E-01   1.00800           0
      1861 MEMB     18       CHL1     C25      CTL1    -0.900000E-01   12.0110           0
      1862 MEMB     18       CHL1     H25      HAL1     0.900000E-01   1.00800           0
      1863 MEMB     18       CHL1     C26      CTL3    -0.270000       12.0110           0
      1864 MEMB     18       CHL1     H26A     HAL3     0.900000E-01   1.00800           0
      1865 MEMB     18       CHL1     H26B     HAL3     0.900000E-01   1.00800           0
      1866 MEMB     18       CHL1     H26C     HAL3     0.900000E-01   1.00800           0
      1867 MEMB     18       CHL1     C27      CTL3    -0.270000       12.0110           0
      1868 MEMB     18       CHL1     H27A     HAL3     0.900000E-01   1.00800           0
      1869 MEMB     18       CHL1     H27B     HAL3     0.900000E-01   1.00800           0
      1870 MEMB     18       CHL1     H27C     HAL3     0.900000E-01   1.00800           0
      1871 MEMB     19       SAPC     N        NTL     -0.600000       14.0070           0
      1872 MEMB     19       SAPC     C12      CTL2    -0.100000       12.0110           0
      1873 MEMB     19       SAPC     H12A     HL       0.250000       1.00800           0
      1874 MEMB     19       SAPC     H12B     HL       0.250000       1.00800           0
      1875 MEMB     19       SAPC     C13      CTL5    -0.350000       12.0110           0
      1876 MEMB     19       SAPC     H13A     HL       0.250000       1.00800           0
      1877 MEMB     19       SAPC     H13B     HL       0.250000       1.00800           0
      1878 MEMB     19       SAPC     H13C     HL       0.250000       1.00800           0
      1879 MEMB     19       SAPC     C14      CTL5    -0.350000       12.0110           0
      1880 MEMB     19       SAPC     H14A     HL       0.250000       1.00800           0
      1881 MEMB     19       SAPC     H14B     HL       0.250000       1.00800           0
      1882 MEMB     19       SAPC     H14C     HL       0.250000       1.00800           0
      1883 MEMB     19       SAPC     C15      CTL5    -0.350000       12.0110           0
      1884 MEMB     19       SAPC     H15A     HL       0.250000       1.00800           0
      1885 MEMB     19       SAPC     H15B     HL       0.250000       1.00800           0
      1886 MEMB     19       SAPC     H15C     HL       0.250000       1.00800           0
      1887 MEMB     19       SAPC     C11      CTL2    -0.800000E-01   12.0110           0
      1888 MEMB     19       SAPC     H11A     HAL2     0.900000E-01   1.00800           0
      1889 MEMB     19       SAPC     H11B     HAL2     0.900000E-01   1.00800           0
      1890 MEMB     19       SAPC     P        PL        1.50000       30.9740           0
      1891 MEMB     19       SAPC     O13      O2L     -0.780000       15.9994           0
      1892 MEMB     19       SAPC     O14      O2L     -0.780000       15.9994           0
      1893 MEMB     19       SAPC     O12      OSLP    -0.570000       15.9994           0
      1894 MEMB     19       SAPC     O11      OSLP    -0.570000       15.9994           0
      1895 MEMB     19       SAPC     C1       CTL2    -0.800000E-01   12.0110           0
      1896 MEMB     19       SAPC     HA       HAL2     0.900000E-01   1.00800           0
      1897 MEMB     19       SAPC     HB       HAL2     0.900000E-01   1.00800           0
      1898 MEMB     19       SAPC     C2       CTL1     0.170000       12.0110           0
      1899 MEMB     19       SAPC     HS       HAL1     0.900000E-01   1.00800           0
      1900 MEMB     19       SAPC     O21      OSL     -0.490000       15.9994           0
      1901 MEMB     19       SAPC     C21      CL       0.900000       12.0110           0
      1902 MEMB     19       SAPC     O22      OBL     -0.630000       15.9994           0
      1903 MEMB     19       SAPC     C22      CTL2    -0.220000       12.0110           0
      1904 MEMB     19       SAPC     H2R      HAL2     0.900000E-01   1.00800           0
      1905 MEMB     19       SAPC     H2S      HAL2     0.900000E-01   1.00800           0
      1906 MEMB     19       SAPC     C3       CTL2     0.800000E-01   12.0110           0
      1907 MEMB     19       SAPC     HX       HAL2     0.900000E-01   1.00800           0
      1908 MEMB     19       SAPC     HY       HAL2     0.900000E-01   1.00800           0
      1909 MEMB     19       SAPC     O31      OSL     -0.490000       15.9994           0
      1910 MEMB     19       SAPC     C31      CL       0.900000       12.0110           0
      1911 MEMB     19       SAPC     O32      OBL     -0.630000       15.9994           0
      1912 MEMB     19       SAPC     C32      CTL2    -0.220000       12.0110           0
      1913 MEMB     19       SAPC     H2X      HAL2     0.900000E-01   1.00800           0
      1914 MEMB     19       SAPC     H2Y      HAL2     0.900000E-01   1.00800           0
      1915 MEMB     19       SAPC     C23      CTL2    -0.180000       12.0110           0
      1916 MEMB     19       SAPC     H3R      HAL2     0.900000E-01   1.00800           0
      1917 MEMB     19       SAPC     H3S      HAL2     0.900000E-01   1.00800           0
      1918 MEMB     19       SAPC     C24      CTL2    -0.180000       12.0110           0
      1919 MEMB     19       SAPC     H4R      HAL2     0.900000E-01   1.00800           0
      1920 MEMB     19       SAPC     H4S      HAL2     0.900000E-01   1.00800           0
      1921 MEMB     19       SAPC     C25      CEL1    -0.150000       12.0110           0
      1922 MEMB     19       SAPC     H5R      HEL1     0.150000       1.00800           0
      1923 MEMB     19       SAPC     C26      CEL1    -0.150000       12.0110           0
      1924 MEMB     19       SAPC     H6R      HEL1     0.150000       1.00800           0
      1925 MEMB     19       SAPC     C27      CTL2    -0.180000       12.0110           0
      1926 MEMB     19       SAPC     H7R      HAL2     0.900000E-01   1.00800           0
      1927 MEMB     19       SAPC     H7S      HAL2     0.900000E-01   1.00800           0
      1928 MEMB     19       SAPC     C28      CEL1    -0.150000       12.0110           0
      1929 MEMB     19       SAPC     H8R      HEL1     0.150000       1.00800           0
      1930 MEMB     19       SAPC     C29      CEL1    -0.150000       12.0110           0
      1931 MEMB     19       SAPC     H9R      HEL1     0.150000       1.00800           0
      1932 MEMB     19       SAPC     C210     CTL2    -0.180000       12.0110           0
      1933 MEMB     19       SAPC     H10R     HAL2     0.900000E-01   1.00800           0
      1934 MEMB     19       SAPC     H10S     HAL2     0.900000E-01   1.00800           0
      1935 MEMB     19       SAPC     C211     CEL1    -0.150000       12.0110           0
      1936 MEMB     19       SAPC     H11R     HEL1     0.150000       1.00800           0
      1937 MEMB     19       SAPC     C212     CEL1    -0.150000       12.0110           0
      1938 MEMB     19       SAPC     H12R     HEL1     0.150000       1.00800           0
      1939 MEMB     19       SAPC     C213     CTL2    -0.180000       12.0110           0
      1940 MEMB     19       SAPC     H13R     HAL2     0.900000E-01   1.00800           0
      1941 MEMB     19       SAPC     H13S     HAL2     0.900000E-01   1.00800           0
      1942 MEMB     19       SAPC     C214     CEL1    -0.150000       12.0110           0
      1943 MEMB     19       SAPC     H14R     HEL1     0.150000       1.00800           0
      1944 MEMB     19       SAPC     C215     CEL1    -0.150000       12.0110           0
      1945 MEMB     19       SAPC     H15R     HEL1     0.150000       1.00800           0
      1946 MEMB     19       SAPC     C216     CTL2    -0.180000       12.0110           0
      1947 MEMB     19       SAPC     H16R     HAL2     0.900000E-01   1.00800           0
      1948 MEMB     19       SAPC     H16S     HAL2     0.900000E-01   1.00800           0
      1949 MEMB     19       SAPC     C217     CTL2    -0.180000       12.0110           0
      1950 MEMB     19       SAPC     H17R     HAL2     0.900000E-01   1.00800           0
      1951 MEMB     19       SAPC     H17S     HAL2     0.900000E-01   1.00800           0
      1952 MEMB     19       SAPC     C218     CTL2    -0.270000       12.0110           0
      1953 MEMB     19       SAPC     H18R     HAL2     0.900000E-01   1.00800           0
      1954 MEMB     19       SAPC     H18S     HAL2     0.900000E-01   1.00800           0
      1955 MEMB     19       SAPC     C219     CTL2    -0.180000       12.0110           0
      1956 MEMB     19       SAPC     H19R     HAL2     0.900000E-01   1.00800           0
      1957 MEMB     19       SAPC     H19S     HAL2     0.900000E-01   1.00800           0
      1958 MEMB     19       SAPC     C220     CTL3    -0.180000       12.0110           0
      1959 MEMB     19       SAPC     H20R     HAL3     0.900000E-01   1.00800           0
      1960 MEMB     19       SAPC     H20S     HAL3     0.900000E-01   1.00800           0
      1961 MEMB     19       SAPC     H20T     HAL3     0.900000E-01   1.00800           0
      1962 MEMB     19       SAPC     C33      CTL2    -0.180000       12.0110           0
      1963 MEMB     19       SAPC     H3X      HAL2     0.900000E-01   1.00800           0
      1964 MEMB     19       SAPC     H3Y      HAL2     0.900000E-01   1.00800           0
      1965 MEMB     19       SAPC     C34      CTL2    -0.180000       12.0110           0
      1966 MEMB     19       SAPC     H4X      HAL2     0.900000E-01   1.00800           0
      1967 MEMB     19       SAPC     H4Y      HAL2     0.900000E-01   1.00800           0
      1968 MEMB     19       SAPC     C35      CTL2    -0.180000       12.0110           0
      1969 MEMB     19       SAPC     H5X      HAL2     0.900000E-01   1.00800           0
      1970 MEMB     19       SAPC     H5Y      HAL2     0.900000E-01   1.00800           0
      1971 MEMB     19       SAPC     C36      CTL2    -0.180000       12.0110           0
      1972 MEMB     19       SAPC     H6X      HAL2     0.900000E-01   1.00800           0
      1973 MEMB     19       SAPC     H6Y      HAL2     0.900000E-01   1.00800           0
      1974 MEMB     19       SAPC     C37      CTL2    -0.180000       12.0110           0
      1975 MEMB     19       SAPC     H7X      HAL2     0.900000E-01   1.00800           0
      1976 MEMB     19       SAPC     H7Y      HAL2     0.900000E-01   1.00800           0
      1977 MEMB     19       SAPC     C38      CTL2    -0.180000       12.0110           0
      1978 MEMB     19       SAPC     H8X      HAL2     0.900000E-01   1.00800           0
      1979 MEMB     19       SAPC     H8Y      HAL2     0.900000E-01   1.00800           0
      1980 MEMB     19       SAPC     C39      CTL2    -0.180000       12.0110           0
      1981 MEMB     19       SAPC     H9X      HAL2     0.900000E-01   1.00800           0
      1982 MEMB     19       SAPC     H9Y      HAL2     0.900000E-01   1.00800           0
      1983 MEMB     19       SAPC     C310     CTL2    -0.180000       12.0110           0
      1984 MEMB     19       SAPC     H10X     HAL2     0.900000E-01   1.00800           0
      1985 MEMB     19       SAPC     H10Y     HAL2     0.900000E-01   1.00800           0
      1986 MEMB     19       SAPC     C311     CTL2    -0.180000       12.0110           0
      1987 MEMB     19       SAPC     H11X     HAL2     0.900000E-01   1.00800           0
      1988 MEMB     19       SAPC     H11Y     HAL2     0.900000E-01   1.00800           0
      1989 MEMB     19       SAPC     C312     CTL2    -0.180000       12.0110           0
      1990 MEMB     19       SAPC     H12X     HAL2     0.900000E-01   1.00800           0
      1991 MEMB     19       SAPC     H12Y     HAL2     0.900000E-01   1.00800           0
      1992 MEMB     19       SAPC     C313     CTL2    -0.180000       12.0110           0
      1993 MEMB     19       SAPC     H13X     HAL2     0.900000E-01   1.00800           0
      1994 MEMB     19       SAPC     H13Y     HAL2     0.900000E-01   1.00800           0
      1995 MEMB     19       SAPC     C314     CTL2    -0.180000       12.0110           0
      1996 MEMB     19       SAPC     H14X     HAL2     0.900000E-01   1.00800           0
      1997 MEMB     19       SAPC     H14Y     HAL2     0.900000E-01   1.00800           0
      1998 MEMB     19       SAPC     C315     CTL2    -0.180000       12.0110           0
      1999 MEMB     19       SAPC     H15X     HAL2     0.900000E-01   1.00800           0
      2000 MEMB     19       SAPC     H15Y     HAL2     0.900000E-01   1.00800           0
      2001 MEMB     19       SAPC     C316     CTL2    -0.180000       12.0110           0
      2002 MEMB     19       SAPC     H16X     HAL2     0.900000E-01   1.00800           0
      2003 MEMB     19       SAPC     H16Y     HAL2     0.900000E-01   1.00800           0
      2004 MEMB     19       SAPC     C317     CTL2    -0.180000       12.0110           0
      2005 MEMB     19       SAPC     H17X     HAL2     0.900000E-01   1.00800           0
      2006 MEMB     19       SAPC     H17Y     HAL2     0.900000E-01   1.00800           0
      2007 MEMB     19       SAPC     C318     CTL3    -0.270000       12.0110           0
      2008 MEMB     19       SAPC     H18X     HAL3     0.900000E-01   1.00800           0
      2009 MEMB     19       SAPC     H18Y     HAL3     0.900000E-01   1.00800           0
      2010 MEMB     19       SAPC     H18Z     HAL3     0.900000E-01   1.00800           0
      2011 MEMB     20       OSM      N        NTL     -0.600000       14.0070           0
      2012 MEMB     20       OSM      C15      CTL5    -0.350000       12.0110           0
      2013 MEMB     20       OSM      H15A     HL       0.250000       1.00800           0
      2014 MEMB     20       OSM      H15B     HL       0.250000       1.00800           0
      2015 MEMB     20       OSM      H15C     HL       0.250000       1.00800           0
      2016 MEMB     20       OSM      C14      CTL5    -0.350000       12.0110           0
      2017 MEMB     20       OSM      H14A     HL       0.250000       1.00800           0
      2018 MEMB     20       OSM      H14B     HL       0.250000       1.00800           0
      2019 MEMB     20       OSM      H14C     HL       0.250000       1.00800           0
      2020 MEMB     20       OSM      C13      CTL5    -0.350000       12.0110           0
      2021 MEMB     20       OSM      H13A     HL       0.250000       1.00800           0
      2022 MEMB     20       OSM      H13B     HL       0.250000       1.00800           0
      2023 MEMB     20       OSM      H13C     HL       0.250000       1.00800           0
      2024 MEMB     20       OSM      C12      CTL2    -0.100000       12.0110           0
      2025 MEMB     20       OSM      H12A     HL       0.250000       1.00800           0
      2026 MEMB     20       OSM      H12B     HL       0.250000       1.00800           0
      2027 MEMB     20       OSM      C11      CTL2    -0.800000E-01   12.0110           0
      2028 MEMB     20       OSM      H11A     HAL2     0.900000E-01   1.00800           0
      2029 MEMB     20       OSM      H11B     HAL2     0.900000E-01   1.00800           0
      2030 MEMB     20       OSM      P        PL        1.50000       30.9740           0
      2031 MEMB     20       OSM      O13      O2L     -0.780000       15.9994           0
      2032 MEMB     20       OSM      O14      O2L     -0.780000       15.9994           0
      2033 MEMB     20       OSM      O11      OSLP    -0.570000       15.9994           0
      2034 MEMB     20       OSM      O12      OSLP    -0.570000       15.9994           0
      2035 MEMB     20       OSM      C1S      CTL2    -0.800000E-01   12.0110           0
      2036 MEMB     20       OSM      H1S      HAL2     0.900000E-01   1.00800           0
      2037 MEMB     20       OSM      H1T      HAL2     0.900000E-01   1.00800           0
      2038 MEMB     20       OSM      NF       NHL     -0.700000       14.0070           0
      2039 MEMB     20       OSM      HNF      H        0.350000       1.00800           0
      2040 MEMB     20       OSM      C2S      CTL1     0.300000       12.0110           0
      2041 MEMB     20       OSM      H2S      HAL1     0.500000E-01   1.00800           0
      2042 MEMB     20       OSM      C3S      CTO1     0.500000       12.0110           0
      2043 MEMB     20       OSM      H3S      HAL1    -0.110000       1.00800           0
      2044 MEMB     20       OSM      O3       OHL     -0.690000       15.9994           0
      2045 MEMB     20       OSM      HO3      HOL      0.300000       1.00800           0
      2046 MEMB     20       OSM      C4S      CEL3    -0.150000       12.0110           0
      2047 MEMB     20       OSM      H4S      HEL1     0.150000       1.00800           0
      2048 MEMB     20       OSM      C5S      CEL3    -0.150000       12.0110           0
      2049 MEMB     20       OSM      H5S      HEL1     0.150000       1.00800           0
      2050 MEMB     20       OSM      C6S      CTL2    -0.180000       12.0110           0
      2051 MEMB     20       OSM      H6S      HAL2     0.900000E-01   1.00800           0
      2052 MEMB     20       OSM      H6T      HAL2     0.900000E-01   1.00800           0
      2053 MEMB     20       OSM      C7S      CTL2    -0.180000       12.0110           0
      2054 MEMB     20       OSM      H7S      HAL2     0.900000E-01   1.00800           0
      2055 MEMB     20       OSM      H7T      HAL2     0.900000E-01   1.00800           0
      2056 MEMB     20       OSM      C8S      CTL2    -0.180000       12.0110           0
      2057 MEMB     20       OSM      H8S      HAL2     0.900000E-01   1.00800           0
      2058 MEMB     20       OSM      H8T      HAL2     0.900000E-01   1.00800           0
      2059 MEMB     20       OSM      C9S      CTL2    -0.180000       12.0110           0
      2060 MEMB     20       OSM      H9S      HAL2     0.900000E-01   1.00800           0
      2061 MEMB     20       OSM      H9T      HAL2     0.900000E-01   1.00800           0
      2062 MEMB     20       OSM      C10S     CTL2    -0.180000       12.0110           0
      2063 MEMB     20       OSM      H10S     HAL2     0.900000E-01   1.00800           0
      2064 MEMB     20       OSM      H10T     HAL2     0.900000E-01   1.00800           0
      2065 MEMB     20       OSM      C11S     CTL2    -0.180000       12.0110           0
      2066 MEMB     20       OSM      H11S     HAL2     0.900000E-01   1.00800           0
      2067 MEMB     20       OSM      H11T     HAL2     0.900000E-01   1.00800           0
      2068 MEMB     20       OSM      C12S     CTL2    -0.180000       12.0110           0
      2069 MEMB     20       OSM      H12S     HAL2     0.900000E-01   1.00800           0
      2070 MEMB     20       OSM      H12T     HAL2     0.900000E-01   1.00800           0
      2071 MEMB     20       OSM      C13S     CTL2    -0.180000       12.0110           0
      2072 MEMB     20       OSM      H13S     HAL2     0.900000E-01   1.00800           0
      2073 MEMB     20       OSM      H13T     HAL2     0.900000E-01   1.00800           0
      2074 MEMB     20       OSM      C14S     CTL2    -0.180000       12.0110           0
      2075 MEMB     20       OSM      H14S     HAL2     0.900000E-01   1.00800           0
      2076 MEMB     20       OSM      H14T     HAL2     0.900000E-01   1.00800           0
      2077 MEMB     20       OSM      C15S     CTL2    -0.180000       12.0110           0
      2078 MEMB     20       OSM      H15S     HAL2     0.900000E-01   1.00800           0
      2079 MEMB     20       OSM      H15T     HAL2     0.900000E-01   1.00800           0
      2080 MEMB     20       OSM      C16S     CTL2    -0.180000       12.0110           0
      2081 MEMB     20       OSM      H16S     HAL2     0.900000E-01   1.00800           0
      2082 MEMB     20       OSM      H16T     HAL2     0.900000E-01   1.00800           0
      2083 MEMB     20       OSM      C17S     CTL2    -0.180000       12.0110           0
      2084 MEMB     20       OSM      H17S     HAL2     0.900000E-01   1.00800           0
      2085 MEMB     20       OSM      H17T     HAL2     0.900000E-01   1.00800           0
      2086 MEMB     20       OSM      C18S     CTL3    -0.270000       12.0110           0
      2087 MEMB     20       OSM      H18S     HAL3     0.900000E-01   1.00800           0
      2088 MEMB     20       OSM      H18T     HAL3     0.900000E-01   1.00800           0
      2089 MEMB     20       OSM      H18U     HAL3     0.900000E-01   1.00800           0
      2090 MEMB     20       OSM      C1F      C        0.550000       12.0110           0
      2091 MEMB     20       OSM      OF       O       -0.600000       15.9994           0
      2092 MEMB     20       OSM      C2F      CTL2    -0.700000E-01   12.0110           0
      2093 MEMB     20       OSM      H2F      HAL2     0.600000E-01   1.00800           0
      2094 MEMB     20       OSM      H2G      HAL2     0.600000E-01   1.00800           0
      2095 MEMB     20       OSM      C3F      CTL2    -0.180000       12.0110           0
      2096 MEMB     20       OSM      H3F      HAL2     0.900000E-01   1.00800           0
      2097 MEMB     20       OSM      H3G      HAL2     0.900000E-01   1.00800           0
      2098 MEMB     20       OSM      C4F      CTL2    -0.180000       12.0110           0
      2099 MEMB     20       OSM      H4F      HAL2     0.900000E-01   1.00800           0
      2100 MEMB     20       OSM      H4G      HAL2     0.900000E-01   1.00800           0
      2101 MEMB     20       OSM      C5F      CTL2    -0.180000       12.0110           0
      2102 MEMB     20       OSM      H5F      HAL2     0.900000E-01   1.00800           0
      2103 MEMB     20       OSM      H5G      HAL2     0.900000E-01   1.00800           0
      2104 MEMB     20       OSM      C6F      CTL2    -0.180000       12.0110           0
      2105 MEMB     20       OSM      H6F      HAL2     0.900000E-01   1.00800           0
      2106 MEMB     20       OSM      H6G      HAL2     0.900000E-01   1.00800           0
      2107 MEMB     20       OSM      C7F      CTL2    -0.180000       12.0110           0
      2108 MEMB     20       OSM      H7F      HAL2     0.900000E-01   1.00800           0
      2109 MEMB     20       OSM      H7G      HAL2     0.900000E-01   1.00800           0
      2110 MEMB     20       OSM      C8F      CTL2    -0.180000       12.0110           0
      2111 MEMB     20       OSM      H8F      HAL2     0.900000E-01   1.00800           0
      2112 MEMB     20       OSM      H8G      HAL2     0.900000E-01   1.00800           0
      2113 MEMB     20       OSM      C9F      CEL1    -0.150000       12.0110           0
      2114 MEMB     20       OSM      H9F      HEL1     0.150000       1.00800           0
      2115 MEMB     20       OSM      C10F     CEL1    -0.150000       12.0110           0
      2116 MEMB     20       OSM      H10F     HEL1     0.150000       1.00800           0
      2117 MEMB     20       OSM      C11F     CTL2    -0.180000       12.0110           0
      2118 MEMB     20       OSM      H11F     HAL2     0.900000E-01   1.00800           0
      2119 MEMB     20       OSM      H11G     HAL2     0.900000E-01   1.00800           0
      2120 MEMB     20       OSM      C12F     CTL2    -0.180000       12.0110           0
      2121 MEMB     20       OSM      H12F     HAL2     0.900000E-01   1.00800           0
      2122 MEMB     20       OSM      H12G     HAL2     0.900000E-01   1.00800           0
      2123 MEMB     20       OSM      C13F     CTL2    -0.180000       12.0110           0
      2124 MEMB     20       OSM      H13F     HAL2     0.900000E-01   1.00800           0
      2125 MEMB     20       OSM      H13G     HAL2     0.900000E-01   1.00800           0
      2126 MEMB     20       OSM      C14F     CTL2    -0.180000       12.0110           0
      2127 MEMB     20       OSM      H14F     HAL2     0.900000E-01   1.00800           0
      2128 MEMB     20       OSM      H14G     HAL2     0.900000E-01   1.00800           0
      2129 MEMB     20       OSM      C15F     CTL2    -0.180000       12.0110           0
      2130 MEMB     20       OSM      H15F     HAL2     0.900000E-01   1.00800           0
      2131 MEMB     20       OSM      H15G     HAL2     0.900000E-01   1.00800           0
      2132 MEMB     20       OSM      C16F     CTL2    -0.180000       12.0110           0
      2133 MEMB     20       OSM      H16F     HAL2     0.900000E-01   1.00800           0
      2134 MEMB     20       OSM      H16G     HAL2     0.900000E-01   1.00800           0
      2135 MEMB     20       OSM      C17F     CTL2    -0.180000       12.0110           0
      2136 MEMB     20       OSM      H17F     HAL2     0.900000E-01   1.00800           0
      2137 MEMB     20       OSM      H17G     HAL2     0.900000E-01   1.00800           0
      2138 MEMB     20       OSM      C18F     CTL3    -0.270000       12.0110           0
      2139 MEMB     20       OSM      H18F     HAL3     0.900000E-01   1.00800           0
      2140 MEMB     20       OSM      H18G     HAL3     0.900000E-01   1.00800           0
      2141 MEMB     20       OSM      H18H     HAL3     0.900000E-01   1.00800           0
      2142 MEMB     21       SAPE     N        NH3L    -0.300000       14.0070           0
      2143 MEMB     21       SAPE     HN1      HCL      0.330000       1.00800           0
      2144 MEMB     21       SAPE     HN2      HCL      0.330000       1.00800           0
      2145 MEMB     21       SAPE     HN3      HCL      0.330000       1.00800           0
      2146 MEMB     21       SAPE     C12      CTL2     0.130000       12.0110           0
      2147 MEMB     21       SAPE     H12A     HAL2     0.900000E-01   1.00800           0
      2148 MEMB     21       SAPE     H12B     HAL2     0.900000E-01   1.00800           0
      2149 MEMB     21       SAPE     C11      CTL2    -0.800000E-01   12.0110           0
      2150 MEMB     21       SAPE     H11A     HAL2     0.900000E-01   1.00800           0
      2151 MEMB     21       SAPE     H11B     HAL2     0.900000E-01   1.00800           0
      2152 MEMB     21       SAPE     P        PL        1.50000       30.9740           0
      2153 MEMB     21       SAPE     O13      O2L     -0.780000       15.9994           0
      2154 MEMB     21       SAPE     O14      O2L     -0.780000       15.9994           0
      2155 MEMB     21       SAPE     O12      OSLP    -0.570000       15.9994           0
      2156 MEMB     21       SAPE     O11      OSLP    -0.570000       15.9994           0
      2157 MEMB     21       SAPE     C1       CTL2    -0.800000E-01   12.0110           0
      2158 MEMB     21       SAPE     HA       HAL2     0.900000E-01   1.00800           0
      2159 MEMB     21       SAPE     HB       HAL2     0.900000E-01   1.00800           0
      2160 MEMB     21       SAPE     C2       CTL1     0.170000       12.0110           0
      2161 MEMB     21       SAPE     HS       HAL1     0.900000E-01   1.00800           0
      2162 MEMB     21       SAPE     O21      OSL     -0.490000       15.9994           0
      2163 MEMB     21       SAPE     C21      CL       0.900000       12.0110           0
      2164 MEMB     21       SAPE     O22      OBL     -0.630000       15.9994           0
      2165 MEMB     21       SAPE     C22      CTL2    -0.220000       12.0110           0
      2166 MEMB     21       SAPE     H2R      HAL2     0.900000E-01   1.00800           0
      2167 MEMB     21       SAPE     H2S      HAL2     0.900000E-01   1.00800           0
      2168 MEMB     21       SAPE     C3       CTL2     0.800000E-01   12.0110           0
      2169 MEMB     21       SAPE     HX       HAL2     0.900000E-01   1.00800           0
      2170 MEMB     21       SAPE     HY       HAL2     0.900000E-01   1.00800           0
      2171 MEMB     21       SAPE     O31      OSL     -0.490000       15.9994           0
      2172 MEMB     21       SAPE     C31      CL       0.900000       12.0110           0
      2173 MEMB     21       SAPE     O32      OBL     -0.630000       15.9994           0
      2174 MEMB     21       SAPE     C32      CTL2    -0.220000       12.0110           0
      2175 MEMB     21       SAPE     H2X      HAL2     0.900000E-01   1.00800           0
      2176 MEMB     21       SAPE     H2Y      HAL2     0.900000E-01   1.00800           0
      2177 MEMB     21       SAPE     C23      CTL2    -0.180000       12.0110           0
      2178 MEMB     21       SAPE     H3R      HAL2     0.900000E-01   1.00800           0
      2179 MEMB     21       SAPE     H3S      HAL2     0.900000E-01   1.00800           0
      2180 MEMB     21       SAPE     C24      CTL2    -0.180000       12.0110           0
      2181 MEMB     21       SAPE     H4R      HAL2     0.900000E-01   1.00800           0
      2182 MEMB     21       SAPE     H4S      HAL2     0.900000E-01   1.00800           0
      2183 MEMB     21       SAPE     C25      CEL1    -0.150000       12.0110           0
      2184 MEMB     21       SAPE     H5R      HEL1     0.150000       1.00800           0
      2185 MEMB     21       SAPE     C26      CEL1    -0.150000       12.0110           0
      2186 MEMB     21       SAPE     H6R      HEL1     0.150000       1.00800           0
      2187 MEMB     21       SAPE     C27      CTL2    -0.180000       12.0110           0
      2188 MEMB     21       SAPE     H7R      HAL2     0.900000E-01   1.00800           0
      2189 MEMB     21       SAPE     H7S      HAL2     0.900000E-01   1.00800           0
      2190 MEMB     21       SAPE     C28      CEL1    -0.150000       12.0110           0
      2191 MEMB     21       SAPE     H8R      HEL1     0.150000       1.00800           0
      2192 MEMB     21       SAPE     C29      CEL1    -0.150000       12.0110           0
      2193 MEMB     21       SAPE     H9R      HEL1     0.150000       1.00800           0
      2194 MEMB     21       SAPE     C210     CTL2    -0.180000       12.0110           0
      2195 MEMB     21       SAPE     H10R     HAL2     0.900000E-01   1.00800           0
      2196 MEMB     21       SAPE     H10S     HAL2     0.900000E-01   1.00800           0
      2197 MEMB     21       SAPE     C211     CEL1    -0.150000       12.0110           0
      2198 MEMB     21       SAPE     H11R     HEL1     0.150000       1.00800           0
      2199 MEMB     21       SAPE     C212     CEL1    -0.150000       12.0110           0
      2200 MEMB     21       SAPE     H12R     HEL1     0.150000       1.00800           0
      2201 MEMB     21       SAPE     C213     CTL2    -0.180000       12.0110           0
      2202 MEMB     21       SAPE     H13R     HAL2     0.900000E-01   1.00800           0
      2203 MEMB     21       SAPE     H13S     HAL2     0.900000E-01   1.00800           0
      2204 MEMB     21       SAPE     C214     CEL1    -0.150000       12.0110           0
      2205 MEMB     21       SAPE     H14R     HEL1     0.150000       1.00800           0
      2206 MEMB     21       SAPE     C215     CEL1    -0.150000       12.0110           0
      2207 MEMB     21       SAPE     H15R     HEL1     0.150000       1.00800           0
      2208 MEMB     21       SAPE     C216     CTL2    -0.180000       12.0110           0
      2209 MEMB     21       SAPE     H16R     HAL2     0.900000E-01   1.00800           0
      2210 MEMB     21       SAPE     H16S     HAL2     0.900000E-01   1.00800           0
      2211 MEMB     21       SAPE     C217     CTL2    -0.180000       12.0110           0
      2212 MEMB     21       SAPE     H17R     HAL2     0.900000E-01   1.00800           0
      2213 MEMB     21       SAPE     H17S     HAL2     0.900000E-01   1.00800           0
      2214 MEMB     21       SAPE     C218     CTL2    -0.180000       12.0110           0
      2215 MEMB     21       SAPE     H18R     HAL2     0.900000E-01   1.00800           0
      2216 MEMB     21       SAPE     H18S     HAL2     0.900000E-01   1.00800           0
      2217 MEMB     21       SAPE     C219     CTL2    -0.180000       12.0110           0
      2218 MEMB     21       SAPE     H19R     HAL2     0.900000E-01   1.00800           0
      2219 MEMB     21       SAPE     H19S     HAL2     0.900000E-01   1.00800           0
      2220 MEMB     21       SAPE     C220     CTL3    -0.270000       12.0110           0
      2221 MEMB     21       SAPE     H20R     HAL3     0.900000E-01   1.00800           0
      2222 MEMB     21       SAPE     H20S     HAL3     0.900000E-01   1.00800           0
      2223 MEMB     21       SAPE     H20T     HAL3     0.900000E-01   1.00800           0
      2224 MEMB     21       SAPE     C33      CTL2    -0.180000       12.0110           0
      2225 MEMB     21       SAPE     H3X      HAL2     0.900000E-01   1.00800           0
      2226 MEMB     21       SAPE     H3Y      HAL2     0.900000E-01   1.00800           0
      2227 MEMB     21       SAPE     C34      CTL2    -0.180000       12.0110           0
      2228 MEMB     21       SAPE     H4X      HAL2     0.900000E-01   1.00800           0
      2229 MEMB     21       SAPE     H4Y      HAL2     0.900000E-01   1.00800           0
      2230 MEMB     21       SAPE     C35      CTL2    -0.180000       12.0110           0
      2231 MEMB     21       SAPE     H5X      HAL2     0.900000E-01   1.00800           0
      2232 MEMB     21       SAPE     H5Y      HAL2     0.900000E-01   1.00800           0
      2233 MEMB     21       SAPE     C36      CTL2    -0.180000       12.0110           0
      2234 MEMB     21       SAPE     H6X      HAL2     0.900000E-01   1.00800           0
      2235 MEMB     21       SAPE     H6Y      HAL2     0.900000E-01   1.00800           0
      2236 MEMB     21       SAPE     C37      CTL2    -0.180000       12.0110           0
      2237 MEMB     21       SAPE     H7X      HAL2     0.900000E-01   1.00800           0
      2238 MEMB     21       SAPE     H7Y      HAL2     0.900000E-01   1.00800           0
      2239 MEMB     21       SAPE     C38      CTL2    -0.180000       12.0110           0
      2240 MEMB     21       SAPE     H8X      HAL2     0.900000E-01   1.00800           0
      2241 MEMB     21       SAPE     H8Y      HAL2     0.900000E-01   1.00800           0
      2242 MEMB     21       SAPE     C39      CTL2    -0.180000       12.0110           0
      2243 MEMB     21       SAPE     H9X      HAL2     0.900000E-01   1.00800           0
      2244 MEMB     21       SAPE     H9Y      HAL2     0.900000E-01   1.00800           0
      2245 MEMB     21       SAPE     C310     CTL2    -0.180000       12.0110           0
      2246 MEMB     21       SAPE     H10X     HAL2     0.900000E-01   1.00800           0
      2247 MEMB     21       SAPE     H10Y     HAL2     0.900000E-01   1.00800           0
      2248 MEMB     21       SAPE     C311     CTL2    -0.180000       12.0110           0
      2249 MEMB     21       SAPE     H11X     HAL2     0.900000E-01   1.00800           0
      2250 MEMB     21       SAPE     H11Y     HAL2     0.900000E-01   1.00800           0
      2251 MEMB     21       SAPE     C312     CTL2    -0.180000       12.0110           0
      2252 MEMB     21       SAPE     H12X     HAL2     0.900000E-01   1.00800           0
      2253 MEMB     21       SAPE     H12Y     HAL2     0.900000E-01   1.00800           0
      2254 MEMB     21       SAPE     C313     CTL2    -0.180000       12.0110           0
      2255 MEMB     21       SAPE     H13X     HAL2     0.900000E-01   1.00800           0
      2256 MEMB     21       SAPE     H13Y     HAL2     0.900000E-01   1.00800           0
      2257 MEMB     21       SAPE     C314     CTL2    -0.180000       12.0110           0
      2258 MEMB     21       SAPE     H14X     HAL2     0.900000E-01   1.00800           0
      2259 MEMB     21       SAPE     H14Y     HAL2     0.900000E-01   1.00800           0
      2260 MEMB     21       SAPE     C315     CTL2    -0.180000       12.0110           0
      2261 MEMB     21       SAPE     H15X     HAL2     0.900000E-01   1.00800           0
      2262 MEMB     21       SAPE     H15Y     HAL2     0.900000E-01   1.00800           0
      2263 MEMB     21       SAPE     C316     CTL2    -0.180000       12.0110           0
      2264 MEMB     21       SAPE     H16X     HAL2     0.900000E-01   1.00800           0
      2265 MEMB     21       SAPE     H16Y     HAL2     0.900000E-01   1.00800           0
      2266 MEMB     21       SAPE     C317     CTL2    -0.180000       12.0110           0
      2267 MEMB     21       SAPE     H17X     HAL2     0.900000E-01   1.00800           0
      2268 MEMB     21       SAPE     H17Y     HAL2     0.900000E-01   1.00800           0
      2269 MEMB     21       SAPE     C318     CTL3    -0.270000       12.0110           0
      2270 MEMB     21       SAPE     H18X     HAL3     0.900000E-01   1.00800           0
      2271 MEMB     21       SAPE     H18Y     HAL3     0.900000E-01   1.00800           0
      2272 MEMB     21       SAPE     H18Z     HAL3     0.900000E-01   1.00800           0
      2273 MEMB     22       CHL1     C3       CRL1     0.140000       12.0110           0
      2274 MEMB     22       CHL1     H3       HGA1     0.900000E-01   1.00800           0
      2275 MEMB     22       CHL1     O3       OHL     -0.660000       15.9994           0
      2276 MEMB     22       CHL1     H3'      HOL      0.430000       1.00800           0
      2277 MEMB     22       CHL1     C4       CRL2    -0.180000       12.0110           0
      2278 MEMB     22       CHL1     H4A      HGA2     0.900000E-01   1.00800           0
      2279 MEMB     22       CHL1     H4B      HGA2     0.900000E-01   1.00800           0
      2280 MEMB     22       CHL1     C5       CEL1      0.00000       12.0110           0
      2281 MEMB     22       CHL1     C6       CEL1    -0.150000       12.0110           0
      2282 MEMB     22       CHL1     H6       HEL1     0.150000       1.00800           0
      2283 MEMB     22       CHL1     C7       CRL2    -0.180000       12.0110           0
      2284 MEMB     22       CHL1     H7A      HGA2     0.900000E-01   1.00800           0
      2285 MEMB     22       CHL1     H7B      HGA2     0.900000E-01   1.00800           0
      2286 MEMB     22       CHL1     C8       CRL1    -0.900000E-01   12.0110           0
      2287 MEMB     22       CHL1     H8       HGA1     0.900000E-01   1.00800           0
      2288 MEMB     22       CHL1     C14      CRL1    -0.900000E-01   12.0110           0
      2289 MEMB     22       CHL1     H14      HGA1     0.900000E-01   1.00800           0
      2290 MEMB     22       CHL1     C15      CRL2    -0.180000       12.0110           0
      2291 MEMB     22       CHL1     H15A     HGA2     0.900000E-01   1.00800           0
      2292 MEMB     22       CHL1     H15B     HGA2     0.900000E-01   1.00800           0
      2293 MEMB     22       CHL1     C16      CRL2    -0.180000       12.0110           0
      2294 MEMB     22       CHL1     H16A     HGA2     0.900000E-01   1.00800           0
      2295 MEMB     22       CHL1     H16B     HGA2     0.900000E-01   1.00800           0
      2296 MEMB     22       CHL1     C17      CRL1    -0.900000E-01   12.0110           0
      2297 MEMB     22       CHL1     H17      HGA1     0.900000E-01   1.00800           0
      2298 MEMB     22       CHL1     C13      CRL1      0.00000       12.0110           0
      2299 MEMB     22       CHL1     C18      CTL3    -0.270000       12.0110           0
      2300 MEMB     22       CHL1     H18A     HAL3     0.900000E-01   1.00800           0
      2301 MEMB     22       CHL1     H18B     HAL3     0.900000E-01   1.00800           0
      2302 MEMB     22       CHL1     H18C     HAL3     0.900000E-01   1.00800           0
      2303 MEMB     22       CHL1     C12      CRL2    -0.180000       12.0110           0
      2304 MEMB     22       CHL1     H12A     HGA2     0.900000E-01   1.00800           0
      2305 MEMB     22       CHL1     H12B     HGA2     0.900000E-01   1.00800           0
      2306 MEMB     22       CHL1     C11      CRL2    -0.180000       12.0110           0
      2307 MEMB     22       CHL1     H11A     HGA2     0.900000E-01   1.00800           0
      2308 MEMB     22       CHL1     H11B     HGA2     0.900000E-01   1.00800           0
      2309 MEMB     22       CHL1     C9       CRL1    -0.900000E-01   12.0110           0
      2310 MEMB     22       CHL1     H9       HGA1     0.900000E-01   1.00800           0
      2311 MEMB     22       CHL1     C10      CRL1      0.00000       12.0110           0
      2312 MEMB     22       CHL1     C19      CTL3    -0.270000       12.0110           0
      2313 MEMB     22       CHL1     H19A     HAL3     0.900000E-01   1.00800           0
      2314 MEMB     22       CHL1     H19B     HAL3     0.900000E-01   1.00800           0
      2315 MEMB     22       CHL1     H19C     HAL3     0.900000E-01   1.00800           0
      2316 MEMB     22       CHL1     C1       CRL2    -0.180000       12.0110           0
      2317 MEMB     22       CHL1     H1A      HGA2     0.900000E-01   1.00800           0
      2318 MEMB     22       CHL1     H1B      HGA2     0.900000E-01   1.00800           0
      2319 MEMB     22       CHL1     C2       CRL2    -0.180000       12.0110           0
      2320 MEMB     22       CHL1     H2A      HGA2     0.900000E-01   1.00800           0
      2321 MEMB     22       CHL1     H2B      HGA2     0.900000E-01   1.00800           0
      2322 MEMB     22       CHL1     C20      CTL1    -0.900000E-01   12.0110           0
      2323 MEMB     22       CHL1     H20      HAL1     0.900000E-01   1.00800           0
      2324 MEMB     22       CHL1     C21      CTL3    -0.270000       12.0110           0
      2325 MEMB     22       CHL1     H21A     HAL3     0.900000E-01   1.00800           0
      2326 MEMB     22       CHL1     H21B     HAL3     0.900000E-01   1.00800           0
      2327 MEMB     22       CHL1     H21C     HAL3     0.900000E-01   1.00800           0
      2328 MEMB     22       CHL1     C22      CTL2    -0.180000       12.0110           0
      2329 MEMB     22       CHL1     H22A     HAL2     0.900000E-01   1.00800           0
      2330 MEMB     22       CHL1     H22B     HAL2     0.900000E-01   1.00800           0
      2331 MEMB     22       CHL1     C23      CTL2    -0.180000       12.0110           0
      2332 MEMB     22       CHL1     H23A     HAL2     0.900000E-01   1.00800           0
      2333 MEMB     22       CHL1     H23B     HAL2     0.900000E-01   1.00800           0
      2334 MEMB     22       CHL1     C24      CTL2    -0.180000       12.0110           0
      2335 MEMB     22       CHL1     H24A     HAL2     0.900000E-01   1.00800           0
      2336 MEMB     22       CHL1     H24B     HAL2     0.900000E-01   1.00800           0
      2337 MEMB     22       CHL1     C25      CTL1    -0.900000E-01   12.0110           0
      2338 MEMB     22       CHL1     H25      HAL1     0.900000E-01   1.00800           0
      2339 MEMB     22       CHL1     C26      CTL3    -0.270000       12.0110           0
      2340 MEMB     22       CHL1     H26A     HAL3     0.900000E-01   1.00800           0
      2341 MEMB     22       CHL1     H26B     HAL3     0.900000E-01   1.00800           0
      2342 MEMB     22       CHL1     H26C     HAL3     0.900000E-01   1.00800           0
      2343 MEMB     22       CHL1     C27      CTL3    -0.270000       12.0110           0
      2344 MEMB     22       CHL1     H27A     HAL3     0.900000E-01   1.00800           0
      2345 MEMB     22       CHL1     H27B     HAL3     0.900000E-01   1.00800           0
      2346 MEMB     22       CHL1     H27C     HAL3     0.900000E-01   1.00800           0
      2347 MEMB     23       CHL1     C3       CRL1     0.140000       12.0110           0
      2348 MEMB     23       CHL1     H3       HGA1     0.900000E-01   1.00800           0
      2349 MEMB     23       CHL1     O3       OHL     -0.660000       15.9994           0
      2350 MEMB     23       CHL1     H3'      HOL      0.430000       1.00800           0
      2351 MEMB     23       CHL1     C4       CRL2    -0.180000       12.0110           0
      2352 MEMB     23       CHL1     H4A      HGA2     0.900000E-01   1.00800           0
      2353 MEMB     23       CHL1     H4B      HGA2     0.900000E-01   1.00800           0
      2354 MEMB     23       CHL1     C5       CEL1      0.00000       12.0110           0
      2355 MEMB     23       CHL1     C6       CEL1    -0.150000       12.0110           0
      2356 MEMB     23       CHL1     H6       HEL1     0.150000       1.00800           0
      2357 MEMB     23       CHL1     C7       CRL2    -0.180000       12.0110           0
      2358 MEMB     23       CHL1     H7A      HGA2     0.900000E-01   1.00800           0
      2359 MEMB     23       CHL1     H7B      HGA2     0.900000E-01   1.00800           0
      2360 MEMB     23       CHL1     C8       CRL1    -0.900000E-01   12.0110           0
      2361 MEMB     23       CHL1     H8       HGA1     0.900000E-01   1.00800           0
      2362 MEMB     23       CHL1     C14      CRL1    -0.900000E-01   12.0110           0
      2363 MEMB     23       CHL1     H14      HGA1     0.900000E-01   1.00800           0
      2364 MEMB     23       CHL1     C15      CRL2    -0.180000       12.0110           0
      2365 MEMB     23       CHL1     H15A     HGA2     0.900000E-01   1.00800           0
      2366 MEMB     23       CHL1     H15B     HGA2     0.900000E-01   1.00800           0
      2367 MEMB     23       CHL1     C16      CRL2    -0.180000       12.0110           0
      2368 MEMB     23       CHL1     H16A     HGA2     0.900000E-01   1.00800           0
      2369 MEMB     23       CHL1     H16B     HGA2     0.900000E-01   1.00800           0
      2370 MEMB     23       CHL1     C17      CRL1    -0.900000E-01   12.0110           0
      2371 MEMB     23       CHL1     H17      HGA1     0.900000E-01   1.00800           0
      2372 MEMB     23       CHL1     C13      CRL1      0.00000       12.0110           0
      2373 MEMB     23       CHL1     C18      CTL3    -0.270000       12.0110           0
      2374 MEMB     23       CHL1     H18A     HAL3     0.900000E-01   1.00800           0
      2375 MEMB     23       CHL1     H18B     HAL3     0.900000E-01   1.00800           0
      2376 MEMB     23       CHL1     H18C     HAL3     0.900000E-01   1.00800           0
      2377 MEMB     23       CHL1     C12      CRL2    -0.180000       12.0110           0
      2378 MEMB     23       CHL1     H12A     HGA2     0.900000E-01   1.00800           0
      2379 MEMB     23       CHL1     H12B     HGA2     0.900000E-01   1.00800           0
      2380 MEMB     23       CHL1     C11      CRL2    -0.180000       12.0110           0
      2381 MEMB     23       CHL1     H11A     HGA2     0.900000E-01   1.00800           0
      2382 MEMB     23       CHL1     H11B     HGA2     0.900000E-01   1.00800           0
      2383 MEMB     23       CHL1     C9       CRL1    -0.900000E-01   12.0110           0
      2384 MEMB     23       CHL1     H9       HGA1     0.900000E-01   1.00800           0
      2385 MEMB     23       CHL1     C10      CRL1      0.00000       12.0110           0
      2386 MEMB     23       CHL1     C19      CTL3    -0.270000       12.0110           0
      2387 MEMB     23       CHL1     H19A     HAL3     0.900000E-01   1.00800           0
      2388 MEMB     23       CHL1     H19B     HAL3     0.900000E-01   1.00800           0
      2389 MEMB     23       CHL1     H19C     HAL3     0.900000E-01   1.00800           0
      2390 MEMB     23       CHL1     C1       CRL2    -0.180000       12.0110           0
      2391 MEMB     23       CHL1     H1A      HGA2     0.900000E-01   1.00800           0
      2392 MEMB     23       CHL1     H1B      HGA2     0.900000E-01   1.00800           0
      2393 MEMB     23       CHL1     C2       CRL2    -0.180000       12.0110           0
      2394 MEMB     23       CHL1     H2A      HGA2     0.900000E-01   1.00800           0
      2395 MEMB     23       CHL1     H2B      HGA2     0.900000E-01   1.00800           0
      2396 MEMB     23       CHL1     C20      CTL1    -0.900000E-01   12.0110           0
      2397 MEMB     23       CHL1     H20      HAL1     0.900000E-01   1.00800           0
      2398 MEMB     23       CHL1     C21      CTL3    -0.270000       12.0110           0
      2399 MEMB     23       CHL1     H21A     HAL3     0.900000E-01   1.00800           0
      2400 MEMB     23       CHL1     H21B     HAL3     0.900000E-01   1.00800           0
      2401 MEMB     23       CHL1     H21C     HAL3     0.900000E-01   1.00800           0
      2402 MEMB     23       CHL1     C22      CTL2    -0.180000       12.0110           0
      2403 MEMB     23       CHL1     H22A     HAL2     0.900000E-01   1.00800           0
      2404 MEMB     23       CHL1     H22B     HAL2     0.900000E-01   1.00800           0
      2405 MEMB     23       CHL1     C23      CTL2    -0.180000       12.0110           0
      2406 MEMB     23       CHL1     H23A     HAL2     0.900000E-01   1.00800           0
      2407 MEMB     23       CHL1     H23B     HAL2     0.900000E-01   1.00800           0
      2408 MEMB     23       CHL1     C24      CTL2    -0.180000       12.0110           0
      2409 MEMB     23       CHL1     H24A     HAL2     0.900000E-01   1.00800           0
      2410 MEMB     23       CHL1     H24B     HAL2     0.900000E-01   1.00800           0
      2411 MEMB     23       CHL1     C25      CTL1    -0.900000E-01   12.0110           0
      2412 MEMB     23       CHL1     H25      HAL1     0.900000E-01   1.00800           0
      2413 MEMB     23       CHL1     C26      CTL3    -0.270000       12.0110           0
      2414 MEMB     23       CHL1     H26A     HAL3     0.900000E-01   1.00800           0
      2415 MEMB     23       CHL1     H26B     HAL3     0.900000E-01   1.00800           0
      2416 MEMB     23       CHL1     H26C     HAL3     0.900000E-01   1.00800           0
      2417 MEMB     23       CHL1     C27      CTL3    -0.270000       12.0110           0
      2418 MEMB     23       CHL1     H27A     HAL3     0.900000E-01   1.00800           0
      2419 MEMB     23       CHL1     H27B     HAL3     0.900000E-01   1.00800           0
      2420 MEMB     23       CHL1     H27C     HAL3     0.900000E-01   1.00800           0
      2421 MEMB     24       SAPE     N        NH3L    -0.300000       14.0070           0
      2422 MEMB     24       SAPE     HN1      HCL      0.330000       1.00800           0
      2423 MEMB     24       SAPE     HN2      HCL      0.330000       1.00800           0
      2424 MEMB     24       SAPE     HN3      HCL      0.330000       1.00800           0
      2425 MEMB     24       SAPE     C12      CTL2     0.130000       12.0110           0
      2426 MEMB     24       SAPE     H12A     HAL2     0.900000E-01   1.00800           0
      2427 MEMB     24       SAPE     H12B     HAL2     0.900000E-01   1.00800           0
      2428 MEMB     24       SAPE     C11      CTL2    -0.800000E-01   12.0110           0
      2429 MEMB     24       SAPE     H11A     HAL2     0.900000E-01   1.00800           0
      2430 MEMB     24       SAPE     H11B     HAL2     0.900000E-01   1.00800           0
      2431 MEMB     24       SAPE     P        PL        1.50000       30.9740           0
      2432 MEMB     24       SAPE     O13      O2L     -0.780000       15.9994           0
      2433 MEMB     24       SAPE     O14      O2L     -0.780000       15.9994           0
      2434 MEMB     24       SAPE     O12      OSLP    -0.570000       15.9994           0
      2435 MEMB     24       SAPE     O11      OSLP    -0.570000       15.9994           0
      2436 MEMB     24       SAPE     C1       CTL2    -0.800000E-01   12.0110           0
      2437 MEMB     24       SAPE     HA       HAL2     0.900000E-01   1.00800           0
      2438 MEMB     24       SAPE     HB       HAL2     0.900000E-01   1.00800           0
      2439 MEMB     24       SAPE     C2       CTL1     0.170000       12.0110           0
      2440 MEMB     24       SAPE     HS       HAL1     0.900000E-01   1.00800           0
      2441 MEMB     24       SAPE     O21      OSL     -0.490000       15.9994           0
      2442 MEMB     24       SAPE     C21      CL       0.900000       12.0110           0
      2443 MEMB     24       SAPE     O22      OBL     -0.630000       15.9994           0
      2444 MEMB     24       SAPE     C22      CTL2    -0.220000       12.0110           0
      2445 MEMB     24       SAPE     H2R      HAL2     0.900000E-01   1.00800           0
      2446 MEMB     24       SAPE     H2S      HAL2     0.900000E-01   1.00800           0
      2447 MEMB     24       SAPE     C3       CTL2     0.800000E-01   12.0110           0
      2448 MEMB     24       SAPE     HX       HAL2     0.900000E-01   1.00800           0
      2449 MEMB     24       SAPE     HY       HAL2     0.900000E-01   1.00800           0
      2450 MEMB     24       SAPE     O31      OSL     -0.490000       15.9994           0
      2451 MEMB     24       SAPE     C31      CL       0.900000       12.0110           0
      2452 MEMB     24       SAPE     O32      OBL     -0.630000       15.9994           0
      2453 MEMB     24       SAPE     C32      CTL2    -0.220000       12.0110           0
      2454 MEMB     24       SAPE     H2X      HAL2     0.900000E-01   1.00800           0
      2455 MEMB     24       SAPE     H2Y      HAL2     0.900000E-01   1.00800           0
      2456 MEMB     24       SAPE     C23      CTL2    -0.180000       12.0110           0
      2457 MEMB     24       SAPE     H3R      HAL2     0.900000E-01   1.00800           0
      2458 MEMB     24       SAPE     H3S      HAL2     0.900000E-01   1.00800           0
      2459 MEMB     24       SAPE     C24      CTL2    -0.180000       12.0110           0
      2460 MEMB     24       SAPE     H4R      HAL2     0.900000E-01   1.00800           0
      2461 MEMB     24       SAPE     H4S      HAL2     0.900000E-01   1.00800           0
      2462 MEMB     24       SAPE     C25      CEL1    -0.150000       12.0110           0
      2463 MEMB     24       SAPE     H5R      HEL1     0.150000       1.00800           0
      2464 MEMB     24       SAPE     C26      CEL1    -0.150000       12.0110           0
      2465 MEMB     24       SAPE     H6R      HEL1     0.150000       1.00800           0
      2466 MEMB     24       SAPE     C27      CTL2    -0.180000       12.0110           0
      2467 MEMB     24       SAPE     H7R      HAL2     0.900000E-01   1.00800           0
      2468 MEMB     24       SAPE     H7S      HAL2     0.900000E-01   1.00800           0
      2469 MEMB     24       SAPE     C28      CEL1    -0.150000       12.0110           0
      2470 MEMB     24       SAPE     H8R      HEL1     0.150000       1.00800           0
      2471 MEMB     24       SAPE     C29      CEL1    -0.150000       12.0110           0
      2472 MEMB     24       SAPE     H9R      HEL1     0.150000       1.00800           0
      2473 MEMB     24       SAPE     C210     CTL2    -0.180000       12.0110           0
      2474 MEMB     24       SAPE     H10R     HAL2     0.900000E-01   1.00800           0
      2475 MEMB     24       SAPE     H10S     HAL2     0.900000E-01   1.00800           0
      2476 MEMB     24       SAPE     C211     CEL1    -0.150000       12.0110           0
      2477 MEMB     24       SAPE     H11R     HEL1     0.150000       1.00800           0
      2478 MEMB     24       SAPE     C212     CEL1    -0.150000       12.0110           0
      2479 MEMB     24       SAPE     H12R     HEL1     0.150000       1.00800           0
      2480 MEMB     24       SAPE     C213     CTL2    -0.180000       12.0110           0
      2481 MEMB     24       SAPE     H13R     HAL2     0.900000E-01   1.00800           0
      2482 MEMB     24       SAPE     H13S     HAL2     0.900000E-01   1.00800           0
      2483 MEMB     24       SAPE     C214     CEL1    -0.150000       12.0110           0
      2484 MEMB     24       SAPE     H14R     HEL1     0.150000       1.00800           0
      2485 MEMB     24       SAPE     C215     CEL1    -0.150000       12.0110           0
      2486 MEMB     24       SAPE     H15R     HEL1     0.150000       1.00800           0
      2487 MEMB     24       SAPE     C216     CTL2    -0.180000       12.0110           0
      2488 MEMB     24       SAPE     H16R     HAL2     0.900000E-01   1.00800           0
      2489 MEMB     24       SAPE     H16S     HAL2     0.900000E-01   1.00800           0
      2490 MEMB     24       SAPE     C217     CTL2    -0.180000       12.0110           0
      2491 MEMB     24       SAPE     H17R     HAL2     0.900000E-01   1.00800           0
      2492 MEMB     24       SAPE     H17S     HAL2     0.900000E-01   1.00800           0
      2493 MEMB     24       SAPE     C218     CTL2    -0.180000       12.0110           0
      2494 MEMB     24       SAPE     H18R     HAL2     0.900000E-01   1.00800           0
      2495 MEMB     24       SAPE     H18S     HAL2     0.900000E-01   1.00800           0
      2496 MEMB     24       SAPE     C219     CTL2    -0.180000       12.0110           0
      2497 MEMB     24       SAPE     H19R     HAL2     0.900000E-01   1.00800           0
      2498 MEMB     24       SAPE     H19S     HAL2     0.900000E-01   1.00800           0
      2499 MEMB     24       SAPE     C220     CTL3    -0.270000       12.0110           0
      2500 MEMB     24       SAPE     H20R     HAL3     0.900000E-01   1.00800           0
      2501 MEMB     24       SAPE     H20S     HAL3     0.900000E-01   1.00800           0
      2502 MEMB     24       SAPE     H20T     HAL3     0.900000E-01   1.00800           0
      2503 MEMB     24       SAPE     C33      CTL2    -0.180000       12.0110           0
      2504 MEMB     24       SAPE     H3X      HAL2     0.900000E-01   1.00800           0
      2505 MEMB     24       SAPE     H3Y      HAL2     0.900000E-01   1.00800           0
      2506 MEMB     24       SAPE     C34      CTL2    -0.180000       12.0110           0
      2507 MEMB     24       SAPE     H4X      HAL2     0.900000E-01   1.00800           0
      2508 MEMB     24       SAPE     H4Y      HAL2     0.900000E-01   1.00800           0
      2509 MEMB     24       SAPE     C35      CTL2    -0.180000       12.0110           0
      2510 MEMB     24       SAPE     H5X      HAL2     0.900000E-01   1.00800           0
      2511 MEMB     24       SAPE     H5Y      HAL2     0.900000E-01   1.00800           0
      2512 MEMB     24       SAPE     C36      CTL2    -0.180000       12.0110           0
      2513 MEMB     24       SAPE     H6X      HAL2     0.900000E-01   1.00800           0
      2514 MEMB     24       SAPE     H6Y      HAL2     0.900000E-01   1.00800           0
      2515 MEMB     24       SAPE     C37      CTL2    -0.180000       12.0110           0
      2516 MEMB     24       SAPE     H7X      HAL2     0.900000E-01   1.00800           0
      2517 MEMB     24       SAPE     H7Y      HAL2     0.900000E-01   1.00800           0
      2518 MEMB     24       SAPE     C38      CTL2    -0.180000       12.0110           0
      2519 MEMB     24       SAPE     H8X      HAL2     0.900000E-01   1.00800           0
      2520 MEMB     24       SAPE     H8Y      HAL2     0.900000E-01   1.00800           0
      2521 MEMB     24       SAPE     C39      CTL2    -0.180000       12.0110           0
      2522 MEMB     24       SAPE     H9X      HAL2     0.900000E-01   1.00800           0
      2523 MEMB     24       SAPE     H9Y      HAL2     0.900000E-01   1.00800           0
      2524 MEMB     24       SAPE     C310     CTL2    -0.180000       12.0110           0
      2525 MEMB     24       SAPE     H10X     HAL2     0.900000E-01   1.00800           0
      2526 MEMB     24       SAPE     H10Y     HAL2     0.900000E-01   1.00800           0
      2527 MEMB     24       SAPE     C311     CTL2    -0.180000       12.0110           0
      2528 MEMB     24       SAPE     H11X     HAL2     0.900000E-01   1.00800           0
      2529 MEMB     24       SAPE     H11Y     HAL2     0.900000E-01   1.00800           0
      2530 MEMB     24       SAPE     C312     CTL2    -0.180000       12.0110           0
      2531 MEMB     24       SAPE     H12X     HAL2     0.900000E-01   1.00800           0
      2532 MEMB     24       SAPE     H12Y     HAL2     0.900000E-01   1.00800           0
      2533 MEMB     24       SAPE     C313     CTL2    -0.180000       12.0110           0
      2534 MEMB     24       SAPE     H13X     HAL2     0.900000E-01   1.00800           0
      2535 MEMB     24       SAPE     H13Y     HAL2     0.900000E-01   1.00800           0
      2536 MEMB     24       SAPE     C314     CTL2    -0.180000       12.0110           0
      2537 MEMB     24       SAPE     H14X     HAL2     0.900000E-01   1.00800           0
      2538 MEMB     24       SAPE     H14Y     HAL2     0.900000E-01   1.00800           0
      2539 MEMB     24       SAPE     C315     CTL2    -0.180000       12.0110           0
      2540 MEMB     24       SAPE     H15X     HAL2     0.900000E-01   1.00800           0
      2541 MEMB     24       SAPE     H15Y     HAL2     0.900000E-01   1.00800           0
      2542 MEMB     24       SAPE     C316     CTL2    -0.180000       12.0110           0
      2543 MEMB     24       SAPE     H16X     HAL2     0.900000E-01   1.00800           0
      2544 MEMB     24       SAPE     H16Y     HAL2     0.900000E-01   1.00800           0
      2545 MEMB     24       SAPE     C317     CTL2    -0.180000       12.0110           0
      2546 MEMB     24       SAPE     H17X     HAL2     0.900000E-01   1.00800           0
      2547 MEMB     24       SAPE     H17Y     HAL2     0.900000E-01   1.00800           0
      2548 MEMB     24       SAPE     C318     CTL3    -0.270000       12.0110           0
      2549 MEMB     24       SAPE     H18X     HAL3     0.900000E-01   1.00800           0
      2550 MEMB     24       SAPE     H18Y     HAL3     0.900000E-01   1.00800           0
      2551 MEMB     24       SAPE     H18Z     HAL3     0.900000E-01   1.00800           0
      2552 MEMB     25       POPC     N        NTL     -0.600000       14.0070           0
      2553 MEMB     25       POPC     C12      CTL2    -0.100000       12.0110           0
      2554 MEMB     25       POPC     H12A     HL       0.250000       1.00800           0
      2555 MEMB     25       POPC     H12B     HL       0.250000       1.00800           0
      2556 MEMB     25       POPC     C13      CTL5    -0.350000       12.0110           0
      2557 MEMB     25       POPC     H13A     HL       0.250000       1.00800           0
      2558 MEMB     25       POPC     H13B     HL       0.250000       1.00800           0
      2559 MEMB     25       POPC     H13C     HL       0.250000       1.00800           0
      2560 MEMB     25       POPC     C14      CTL5    -0.350000       12.0110           0
      2561 MEMB     25       POPC     H14A     HL       0.250000       1.00800           0
      2562 MEMB     25       POPC     H14B     HL       0.250000       1.00800           0
      2563 MEMB     25       POPC     H14C     HL       0.250000       1.00800           0
      2564 MEMB     25       POPC     C15      CTL5    -0.350000       12.0110           0
      2565 MEMB     25       POPC     H15A     HL       0.250000       1.00800           0
      2566 MEMB     25       POPC     H15B     HL       0.250000       1.00800           0
      2567 MEMB     25       POPC     H15C     HL       0.250000       1.00800           0
      2568 MEMB     25       POPC     C11      CTL2    -0.800000E-01   12.0110           0
      2569 MEMB     25       POPC     H11A     HAL2     0.900000E-01   1.00800           0
      2570 MEMB     25       POPC     H11B     HAL2     0.900000E-01   1.00800           0
      2571 MEMB     25       POPC     P        PL        1.50000       30.9740           0
      2572 MEMB     25       POPC     O13      O2L     -0.780000       15.9994           0
      2573 MEMB     25       POPC     O14      O2L     -0.780000       15.9994           0
      2574 MEMB     25       POPC     O12      OSLP    -0.570000       15.9994           0
      2575 MEMB     25       POPC     O11      OSLP    -0.570000       15.9994           0
      2576 MEMB     25       POPC     C1       CTL2    -0.800000E-01   12.0110           0
      2577 MEMB     25       POPC     HA       HAL2     0.900000E-01   1.00800           0
      2578 MEMB     25       POPC     HB       HAL2     0.900000E-01   1.00800           0
      2579 MEMB     25       POPC     C2       CTL1     0.170000       12.0110           0
      2580 MEMB     25       POPC     HS       HAL1     0.900000E-01   1.00800           0
      2581 MEMB     25       POPC     O21      OSL     -0.490000       15.9994           0
      2582 MEMB     25       POPC     C21      CL       0.900000       12.0110           0
      2583 MEMB     25       POPC     O22      OBL     -0.630000       15.9994           0
      2584 MEMB     25       POPC     C22      CTL2    -0.220000       12.0110           0
      2585 MEMB     25       POPC     H2R      HAL2     0.900000E-01   1.00800           0
      2586 MEMB     25       POPC     H2S      HAL2     0.900000E-01   1.00800           0
      2587 MEMB     25       POPC     C3       CTL2     0.800000E-01   12.0110           0
      2588 MEMB     25       POPC     HX       HAL2     0.900000E-01   1.00800           0
      2589 MEMB     25       POPC     HY       HAL2     0.900000E-01   1.00800           0
      2590 MEMB     25       POPC     O31      OSL     -0.490000       15.9994           0
      2591 MEMB     25       POPC     C31      CL       0.900000       12.0110           0
      2592 MEMB     25       POPC     O32      OBL     -0.630000       15.9994           0
      2593 MEMB     25       POPC     C32      CTL2    -0.220000       12.0110           0
      2594 MEMB     25       POPC     H2X      HAL2     0.900000E-01   1.00800           0
      2595 MEMB     25       POPC     H2Y      HAL2     0.900000E-01   1.00800           0
      2596 MEMB     25       POPC     C23      CTL2    -0.180000       12.0110           0
      2597 MEMB     25       POPC     H3R      HAL2     0.900000E-01   1.00800           0
      2598 MEMB     25       POPC     H3S      HAL2     0.900000E-01   1.00800           0
      2599 MEMB     25       POPC     C24      CTL2    -0.180000       12.0110           0
      2600 MEMB     25       POPC     H4R      HAL2     0.900000E-01   1.00800           0
      2601 MEMB     25       POPC     H4S      HAL2     0.900000E-01   1.00800           0
      2602 MEMB     25       POPC     C25      CTL2    -0.180000       12.0110           0
      2603 MEMB     25       POPC     H5R      HAL2     0.900000E-01   1.00800           0
      2604 MEMB     25       POPC     H5S      HAL2     0.900000E-01   1.00800           0
      2605 MEMB     25       POPC     C26      CTL2    -0.180000       12.0110           0
      2606 MEMB     25       POPC     H6R      HAL2     0.900000E-01   1.00800           0
      2607 MEMB     25       POPC     H6S      HAL2     0.900000E-01   1.00800           0
      2608 MEMB     25       POPC     C27      CTL2    -0.180000       12.0110           0
      2609 MEMB     25       POPC     H7R      HAL2     0.900000E-01   1.00800           0
      2610 MEMB     25       POPC     H7S      HAL2     0.900000E-01   1.00800           0
      2611 MEMB     25       POPC     C28      CTL2    -0.180000       12.0110           0
      2612 MEMB     25       POPC     H8R      HAL2     0.900000E-01   1.00800           0
      2613 MEMB     25       POPC     H8S      HAL2     0.900000E-01   1.00800           0
      2614 MEMB     25       POPC     C29      CEL1    -0.150000       12.0110           0
      2615 MEMB     25       POPC     H91      HEL1     0.150000       1.00800           0
      2616 MEMB     25       POPC     C210     CEL1    -0.150000       12.0110           0
      2617 MEMB     25       POPC     H101     HEL1     0.150000       1.00800           0
      2618 MEMB     25       POPC     C211     CTL2    -0.180000       12.0110           0
      2619 MEMB     25       POPC     H11R     HAL2     0.900000E-01   1.00800           0
      2620 MEMB     25       POPC     H11S     HAL2     0.900000E-01   1.00800           0
      2621 MEMB     25       POPC     C212     CTL2    -0.180000       12.0110           0
      2622 MEMB     25       POPC     H12R     HAL2     0.900000E-01   1.00800           0
      2623 MEMB     25       POPC     H12S     HAL2     0.900000E-01   1.00800           0
      2624 MEMB     25       POPC     C213     CTL2    -0.180000       12.0110           0
      2625 MEMB     25       POPC     H13R     HAL2     0.900000E-01   1.00800           0
      2626 MEMB     25       POPC     H13S     HAL2     0.900000E-01   1.00800           0
      2627 MEMB     25       POPC     C214     CTL2    -0.180000       12.0110           0
      2628 MEMB     25       POPC     H14R     HAL2     0.900000E-01   1.00800           0
      2629 MEMB     25       POPC     H14S     HAL2     0.900000E-01   1.00800           0
      2630 MEMB     25       POPC     C215     CTL2    -0.180000       12.0110           0
      2631 MEMB     25       POPC     H15R     HAL2     0.900000E-01   1.00800           0
      2632 MEMB     25       POPC     H15S     HAL2     0.900000E-01   1.00800           0
      2633 MEMB     25       POPC     C216     CTL2    -0.180000       12.0110           0
      2634 MEMB     25       POPC     H16R     HAL2     0.900000E-01   1.00800           0
      2635 MEMB     25       POPC     H16S     HAL2     0.900000E-01   1.00800           0
      2636 MEMB     25       POPC     C217     CTL2    -0.180000       12.0110           0
      2637 MEMB     25       POPC     H17R     HAL2     0.900000E-01   1.00800           0
      2638 MEMB     25       POPC     H17S     HAL2     0.900000E-01   1.00800           0
      2639 MEMB     25       POPC     C218     CTL3    -0.270000       12.0110           0
      2640 MEMB     25       POPC     H18R     HAL3     0.900000E-01   1.00800           0
      2641 MEMB     25       POPC     H18S     HAL3     0.900000E-01   1.00800           0
      2642 MEMB     25       POPC     H18T     HAL3     0.900000E-01   1.00800           0
      2643 MEMB     25       POPC     C33      CTL2    -0.180000       12.0110           0
      2644 MEMB     25       POPC     H3X      HAL2     0.900000E-01   1.00800           0
      2645 MEMB     25       POPC     H3Y      HAL2     0.900000E-01   1.00800           0
      2646 MEMB     25       POPC     C34      CTL2    -0.180000       12.0110           0
      2647 MEMB     25       POPC     H4X      HAL2     0.900000E-01   1.00800           0
      2648 MEMB     25       POPC     H4Y      HAL2     0.900000E-01   1.00800           0
      2649 MEMB     25       POPC     C35      CTL2    -0.180000       12.0110           0
      2650 MEMB     25       POPC     H5X      HAL2     0.900000E-01   1.00800           0
      2651 MEMB     25       POPC     H5Y      HAL2     0.900000E-01   1.00800           0
      2652 MEMB     25       POPC     C36      CTL2    -0.180000       12.0110           0
      2653 MEMB     25       POPC     H6X      HAL2     0.900000E-01   1.00800           0
      2654 MEMB     25       POPC     H6Y      HAL2     0.900000E-01   1.00800           0
      2655 MEMB     25       POPC     C37      CTL2    -0.180000       12.0110           0
      2656 MEMB     25       POPC     H7X      HAL2     0.900000E-01   1.00800           0
      2657 MEMB     25       POPC     H7Y      HAL2     0.900000E-01   1.00800           0
      2658 MEMB     25       POPC     C38      CTL2    -0.180000       12.0110           0
      2659 MEMB     25       POPC     H8X      HAL2     0.900000E-01   1.00800           0
      2660 MEMB     25       POPC     H8Y      HAL2     0.900000E-01   1.00800           0
      2661 MEMB     25       POPC     C39      CTL2    -0.180000       12.0110           0
      2662 MEMB     25       POPC     H9X      HAL2     0.900000E-01   1.00800           0
      2663 MEMB     25       POPC     H9Y      HAL2     0.900000E-01   1.00800           0
      2664 MEMB     25       POPC     C310     CTL2    -0.180000       12.0110           0
      2665 MEMB     25       POPC     H10X     HAL2     0.900000E-01   1.00800           0
      2666 MEMB     25       POPC     H10Y     HAL2     0.900000E-01   1.00800           0
      2667 MEMB     25       POPC     C311     CTL2    -0.180000       12.0110           0
      2668 MEMB     25       POPC     H11X     HAL2     0.900000E-01   1.00800           0
      2669 MEMB     25       POPC     H11Y     HAL2     0.900000E-01   1.00800           0
      2670 MEMB     25       POPC     C312     CTL2    -0.180000       12.0110           0
      2671 MEMB     25       POPC     H12X     HAL2     0.900000E-01   1.00800           0
      2672 MEMB     25       POPC     H12Y     HAL2     0.900000E-01   1.00800           0
      2673 MEMB     25       POPC     C313     CTL2    -0.180000       12.0110           0
      2674 MEMB     25       POPC     H13X     HAL2     0.900000E-01   1.00800           0
      2675 MEMB     25       POPC     H13Y     HAL2     0.900000E-01   1.00800           0
      2676 MEMB     25       POPC     C314     CTL2    -0.180000       12.0110           0
      2677 MEMB     25       POPC     H14X     HAL2     0.900000E-01   1.00800           0
      2678 MEMB     25       POPC     H14Y     HAL2     0.900000E-01   1.00800           0
      2679 MEMB     25       POPC     C315     CTL2    -0.180000       12.0110           0
      2680 MEMB     25       POPC     H15X     HAL2     0.900000E-01   1.00800           0
      2681 MEMB     25       POPC     H15Y     HAL2     0.900000E-01   1.00800           0
      2682 MEMB     25       POPC     C316     CTL3    -0.270000       12.0110           0
      2683 MEMB     25       POPC     H16X     HAL3     0.900000E-01   1.00800           0
      2684 MEMB     25       POPC     H16Y     HAL3     0.900000E-01   1.00800           0
      2685 MEMB     25       POPC     H16Z     HAL3     0.900000E-01   1.00800           0
      2686 MEMB     26       SAPS     N        NH3L    -0.300000       14.0070           0
      2687 MEMB     26       SAPS     HN1      HCL      0.330000       1.00800           0
      2688 MEMB     26       SAPS     HN2      HCL      0.330000       1.00800           0
      2689 MEMB     26       SAPS     HN3      HCL      0.330000       1.00800           0
      2690 MEMB     26       SAPS     C12      CTL1     0.210000       12.0110           0
      2691 MEMB     26       SAPS     H12A     HBL      0.100000       1.00800           0
      2692 MEMB     26       SAPS     C13      CCL      0.340000       12.0110           0
      2693 MEMB     26       SAPS     O13A     OCL     -0.670000       15.9994           0
      2694 MEMB     26       SAPS     O13B     OCL     -0.670000       15.9994           0
      2695 MEMB     26       SAPS     C11      CTL2    -0.800000E-01   12.0110           0
      2696 MEMB     26       SAPS     H11A     HAL2     0.900000E-01   1.00800           0
      2697 MEMB     26       SAPS     H11B     HAL2     0.900000E-01   1.00800           0
      2698 MEMB     26       SAPS     P        PL        1.50000       30.9740           0
      2699 MEMB     26       SAPS     O13      O2L     -0.780000       15.9994           0
      2700 MEMB     26       SAPS     O14      O2L     -0.780000       15.9994           0
      2701 MEMB     26       SAPS     O12      OSLP    -0.570000       15.9994           0
      2702 MEMB     26       SAPS     O11      OSLP    -0.570000       15.9994           0
      2703 MEMB     26       SAPS     C1       CTL2    -0.800000E-01   12.0110           0
      2704 MEMB     26       SAPS     HA       HAL2     0.900000E-01   1.00800           0
      2705 MEMB     26       SAPS     HB       HAL2     0.900000E-01   1.00800           0
      2706 MEMB     26       SAPS     C2       CTL1     0.170000       12.0110           0
      2707 MEMB     26       SAPS     HS       HAL1     0.900000E-01   1.00800           0
      2708 MEMB     26       SAPS     O21      OSL     -0.490000       15.9994           0
      2709 MEMB     26       SAPS     C21      CL       0.900000       12.0110           0
      2710 MEMB     26       SAPS     O22      OBL     -0.630000       15.9994           0
      2711 MEMB     26       SAPS     C22      CTL2    -0.220000       12.0110           0
      2712 MEMB     26       SAPS     H2R      HAL2     0.900000E-01   1.00800           0
      2713 MEMB     26       SAPS     H2S      HAL2     0.900000E-01   1.00800           0
      2714 MEMB     26       SAPS     C3       CTL2     0.800000E-01   12.0110           0
      2715 MEMB     26       SAPS     HX       HAL2     0.900000E-01   1.00800           0
      2716 MEMB     26       SAPS     HY       HAL2     0.900000E-01   1.00800           0
      2717 MEMB     26       SAPS     O31      OSL     -0.490000       15.9994           0
      2718 MEMB     26       SAPS     C31      CL       0.900000       12.0110           0
      2719 MEMB     26       SAPS     O32      OBL     -0.630000       15.9994           0
      2720 MEMB     26       SAPS     C32      CTL2    -0.220000       12.0110           0
      2721 MEMB     26       SAPS     H2X      HAL2     0.900000E-01   1.00800           0
      2722 MEMB     26       SAPS     H2Y      HAL2     0.900000E-01   1.00800           0
      2723 MEMB     26       SAPS     C23      CTL2    -0.180000       12.0110           0
      2724 MEMB     26       SAPS     H3R      HAL2     0.900000E-01   1.00800           0
      2725 MEMB     26       SAPS     H3S      HAL2     0.900000E-01   1.00800           0
      2726 MEMB     26       SAPS     C24      CTL2    -0.180000       12.0110           0
      2727 MEMB     26       SAPS     H4R      HAL2     0.900000E-01   1.00800           0
      2728 MEMB     26       SAPS     H4S      HAL2     0.900000E-01   1.00800           0
      2729 MEMB     26       SAPS     C25      CEL1    -0.150000       12.0110           0
      2730 MEMB     26       SAPS     H5R      HEL1     0.150000       1.00800           0
      2731 MEMB     26       SAPS     C26      CEL1    -0.150000       12.0110           0
      2732 MEMB     26       SAPS     H6R      HEL1     0.150000       1.00800           0
      2733 MEMB     26       SAPS     C27      CTL2    -0.180000       12.0110           0
      2734 MEMB     26       SAPS     H7R      HAL2     0.900000E-01   1.00800           0
      2735 MEMB     26       SAPS     H7S      HAL2     0.900000E-01   1.00800           0
      2736 MEMB     26       SAPS     C28      CEL1    -0.150000       12.0110           0
      2737 MEMB     26       SAPS     H8R      HEL1     0.150000       1.00800           0
      2738 MEMB     26       SAPS     C29      CEL1    -0.150000       12.0110           0
      2739 MEMB     26       SAPS     H9R      HEL1     0.150000       1.00800           0
      2740 MEMB     26       SAPS     C210     CTL2    -0.180000       12.0110           0
      2741 MEMB     26       SAPS     H10R     HAL2     0.900000E-01   1.00800           0
      2742 MEMB     26       SAPS     H10S     HAL2     0.900000E-01   1.00800           0
      2743 MEMB     26       SAPS     C211     CEL1    -0.150000       12.0110           0
      2744 MEMB     26       SAPS     H11R     HEL1     0.150000       1.00800           0
      2745 MEMB     26       SAPS     C212     CEL1    -0.150000       12.0110           0
      2746 MEMB     26       SAPS     H12R     HEL1     0.150000       1.00800           0
      2747 MEMB     26       SAPS     C213     CTL2    -0.180000       12.0110           0
      2748 MEMB     26       SAPS     H13R     HAL2     0.900000E-01   1.00800           0
      2749 MEMB     26       SAPS     H13S     HAL2     0.900000E-01   1.00800           0
      2750 MEMB     26       SAPS     C214     CEL1    -0.150000       12.0110           0
      2751 MEMB     26       SAPS     H14R     HEL1     0.150000       1.00800           0
      2752 MEMB     26       SAPS     C215     CEL1    -0.150000       12.0110           0
      2753 MEMB     26       SAPS     H15R     HEL1     0.150000       1.00800           0
      2754 MEMB     26       SAPS     C216     CTL2    -0.180000       12.0110           0
      2755 MEMB     26       SAPS     H16R     HAL2     0.900000E-01   1.00800           0
      2756 MEMB     26       SAPS     H16S     HAL2     0.900000E-01   1.00800           0
      2757 MEMB     26       SAPS     C217     CTL2    -0.180000       12.0110           0
      2758 MEMB     26       SAPS     H17R     HAL2     0.900000E-01   1.00800           0
      2759 MEMB     26       SAPS     H17S     HAL2     0.900000E-01   1.00800           0
      2760 MEMB     26       SAPS     C218     CTL2    -0.180000       12.0110           0
      2761 MEMB     26       SAPS     H18R     HAL2     0.900000E-01   1.00800           0
      2762 MEMB     26       SAPS     H18S     HAL2     0.900000E-01   1.00800           0
      2763 MEMB     26       SAPS     C219     CTL2    -0.180000       12.0110           0
      2764 MEMB     26       SAPS     H19R     HAL2     0.900000E-01   1.00800           0
      2765 MEMB     26       SAPS     H19S     HAL2     0.900000E-01   1.00800           0
      2766 MEMB     26       SAPS     C220     CTL3    -0.270000       12.0110           0
      2767 MEMB     26       SAPS     H20R     HAL3     0.900000E-01   1.00800           0
      2768 MEMB     26       SAPS     H20S     HAL3     0.900000E-01   1.00800           0
      2769 MEMB     26       SAPS     H20T     HAL3     0.900000E-01   1.00800           0
      2770 MEMB     26       SAPS     C33      CTL2    -0.180000       12.0110           0
      2771 MEMB     26       SAPS     H3X      HAL2     0.900000E-01   1.00800           0
      2772 MEMB     26       SAPS     H3Y      HAL2     0.900000E-01   1.00800           0
      2773 MEMB     26       SAPS     C34      CTL2    -0.180000       12.0110           0
      2774 MEMB     26       SAPS     H4X      HAL2     0.900000E-01   1.00800           0
      2775 MEMB     26       SAPS     H4Y      HAL2     0.900000E-01   1.00800           0
      2776 MEMB     26       SAPS     C35      CTL2    -0.180000       12.0110           0
      2777 MEMB     26       SAPS     H5X      HAL2     0.900000E-01   1.00800           0
      2778 MEMB     26       SAPS     H5Y      HAL2     0.900000E-01   1.00800           0
      2779 MEMB     26       SAPS     C36      CTL2    -0.180000       12.0110           0
      2780 MEMB     26       SAPS     H6X      HAL2     0.900000E-01   1.00800           0
      2781 MEMB     26       SAPS     H6Y      HAL2     0.900000E-01   1.00800           0
      2782 MEMB     26       SAPS     C37      CTL2    -0.180000       12.0110           0
      2783 MEMB     26       SAPS     H7X      HAL2     0.900000E-01   1.00800           0
      2784 MEMB     26       SAPS     H7Y      HAL2     0.900000E-01   1.00800           0
      2785 MEMB     26       SAPS     C38      CTL2    -0.180000       12.0110           0
      2786 MEMB     26       SAPS     H8X      HAL2     0.900000E-01   1.00800           0
      2787 MEMB     26       SAPS     H8Y      HAL2     0.900000E-01   1.00800           0
      2788 MEMB     26       SAPS     C39      CTL2    -0.180000       12.0110           0
      2789 MEMB     26       SAPS     H9X      HAL2     0.900000E-01   1.00800           0
      2790 MEMB     26       SAPS     H9Y      HAL2     0.900000E-01   1.00800           0
      2791 MEMB     26       SAPS     C310     CTL2    -0.180000       12.0110           0
      2792 MEMB     26       SAPS     H10X     HAL2     0.900000E-01   1.00800           0
      2793 MEMB     26       SAPS     H10Y     HAL2     0.900000E-01   1.00800           0
      2794 MEMB     26       SAPS     C311     CTL2    -0.180000       12.0110           0
      2795 MEMB     26       SAPS     H11X     HAL2     0.900000E-01   1.00800           0
      2796 MEMB     26       SAPS     H11Y     HAL2     0.900000E-01   1.00800           0
      2797 MEMB     26       SAPS     C312     CTL2    -0.180000       12.0110           0
      2798 MEMB     26       SAPS     H12X     HAL2     0.900000E-01   1.00800           0
      2799 MEMB     26       SAPS     H12Y     HAL2     0.900000E-01   1.00800           0
      2800 MEMB     26       SAPS     C313     CTL2    -0.180000       12.0110           0
      2801 MEMB     26       SAPS     H13X     HAL2     0.900000E-01   1.00800           0
      2802 MEMB     26       SAPS     H13Y     HAL2     0.900000E-01   1.00800           0
      2803 MEMB     26       SAPS     C314     CTL2    -0.180000       12.0110           0
      2804 MEMB     26       SAPS     H14X     HAL2     0.900000E-01   1.00800           0
      2805 MEMB     26       SAPS     H14Y     HAL2     0.900000E-01   1.00800           0
      2806 MEMB     26       SAPS     C315     CTL2    -0.180000       12.0110           0
      2807 MEMB     26       SAPS     H15X     HAL2     0.900000E-01   1.00800           0
      2808 MEMB     26       SAPS     H15Y     HAL2     0.900000E-01   1.00800           0
      2809 MEMB     26       SAPS     C316     CTL2    -0.180000       12.0110           0
      2810 MEMB     26       SAPS     H16X     HAL2     0.900000E-01   1.00800           0
      2811 MEMB     26       SAPS     H16Y     HAL2     0.900000E-01   1.00800           0
      2812 MEMB     26       SAPS     C317     CTL2    -0.180000       12.0110           0
      2813 MEMB     26       SAPS     H17X     HAL2     0.900000E-01   1.00800           0
      2814 MEMB     26       SAPS     H17Y     HAL2     0.900000E-01   1.00800           0
      2815 MEMB     26       SAPS     C318     CTL3    -0.270000       12.0110           0
      2816 MEMB     26       SAPS     H18X     HAL3     0.900000E-01   1.00800           0
      2817 MEMB     26       SAPS     H18Y     HAL3     0.900000E-01   1.00800           0
      2818 MEMB     26       SAPS     H18Z     HAL3     0.900000E-01   1.00800           0
      2819 MEMB     27       CHL1     C3       CRL1     0.140000       12.0110           0
      2820 MEMB     27       CHL1     H3       HGA1     0.900000E-01   1.00800           0
      2821 MEMB     27       CHL1     O3       OHL     -0.660000       15.9994           0
      2822 MEMB     27       CHL1     H3'      HOL      0.430000       1.00800           0
      2823 MEMB     27       CHL1     C4       CRL2    -0.180000       12.0110           0
      2824 MEMB     27       CHL1     H4A      HGA2     0.900000E-01   1.00800           0
      2825 MEMB     27       CHL1     H4B      HGA2     0.900000E-01   1.00800           0
      2826 MEMB     27       CHL1     C5       CEL1      0.00000       12.0110           0
      2827 MEMB     27       CHL1     C6       CEL1    -0.150000       12.0110           0
      2828 MEMB     27       CHL1     H6       HEL1     0.150000       1.00800           0
      2829 MEMB     27       CHL1     C7       CRL2    -0.180000       12.0110           0
      2830 MEMB     27       CHL1     H7A      HGA2     0.900000E-01   1.00800           0
      2831 MEMB     27       CHL1     H7B      HGA2     0.900000E-01   1.00800           0
      2832 MEMB     27       CHL1     C8       CRL1    -0.900000E-01   12.0110           0
      2833 MEMB     27       CHL1     H8       HGA1     0.900000E-01   1.00800           0
      2834 MEMB     27       CHL1     C14      CRL1    -0.900000E-01   12.0110           0
      2835 MEMB     27       CHL1     H14      HGA1     0.900000E-01   1.00800           0
      2836 MEMB     27       CHL1     C15      CRL2    -0.180000       12.0110           0
      2837 MEMB     27       CHL1     H15A     HGA2     0.900000E-01   1.00800           0
      2838 MEMB     27       CHL1     H15B     HGA2     0.900000E-01   1.00800           0
      2839 MEMB     27       CHL1     C16      CRL2    -0.180000       12.0110           0
      2840 MEMB     27       CHL1     H16A     HGA2     0.900000E-01   1.00800           0
      2841 MEMB     27       CHL1     H16B     HGA2     0.900000E-01   1.00800           0
      2842 MEMB     27       CHL1     C17      CRL1    -0.900000E-01   12.0110           0
      2843 MEMB     27       CHL1     H17      HGA1     0.900000E-01   1.00800           0
      2844 MEMB     27       CHL1     C13      CRL1      0.00000       12.0110           0
      2845 MEMB     27       CHL1     C18      CTL3    -0.270000       12.0110           0
      2846 MEMB     27       CHL1     H18A     HAL3     0.900000E-01   1.00800           0
      2847 MEMB     27       CHL1     H18B     HAL3     0.900000E-01   1.00800           0
      2848 MEMB     27       CHL1     H18C     HAL3     0.900000E-01   1.00800           0
      2849 MEMB     27       CHL1     C12      CRL2    -0.180000       12.0110           0
      2850 MEMB     27       CHL1     H12A     HGA2     0.900000E-01   1.00800           0
      2851 MEMB     27       CHL1     H12B     HGA2     0.900000E-01   1.00800           0
      2852 MEMB     27       CHL1     C11      CRL2    -0.180000       12.0110           0
      2853 MEMB     27       CHL1     H11A     HGA2     0.900000E-01   1.00800           0
      2854 MEMB     27       CHL1     H11B     HGA2     0.900000E-01   1.00800           0
      2855 MEMB     27       CHL1     C9       CRL1    -0.900000E-01   12.0110           0
      2856 MEMB     27       CHL1     H9       HGA1     0.900000E-01   1.00800           0
      2857 MEMB     27       CHL1     C10      CRL1      0.00000       12.0110           0
      2858 MEMB     27       CHL1     C19      CTL3    -0.270000       12.0110           0
      2859 MEMB     27       CHL1     H19A     HAL3     0.900000E-01   1.00800           0
      2860 MEMB     27       CHL1     H19B     HAL3     0.900000E-01   1.00800           0
      2861 MEMB     27       CHL1     H19C     HAL3     0.900000E-01   1.00800           0
      2862 MEMB     27       CHL1     C1       CRL2    -0.180000       12.0110           0
      2863 MEMB     27       CHL1     H1A      HGA2     0.900000E-01   1.00800           0
      2864 MEMB     27       CHL1     H1B      HGA2     0.900000E-01   1.00800           0
      2865 MEMB     27       CHL1     C2       CRL2    -0.180000       12.0110           0
      2866 MEMB     27       CHL1     H2A      HGA2     0.900000E-01   1.00800           0
      2867 MEMB     27       CHL1     H2B      HGA2     0.900000E-01   1.00800           0
      2868 MEMB     27       CHL1     C20      CTL1    -0.900000E-01   12.0110           0
      2869 MEMB     27       CHL1     H20      HAL1     0.900000E-01   1.00800           0
      2870 MEMB     27       CHL1     C21      CTL3    -0.270000       12.0110           0
      2871 MEMB     27       CHL1     H21A     HAL3     0.900000E-01   1.00800           0
      2872 MEMB     27       CHL1     H21B     HAL3     0.900000E-01   1.00800           0
      2873 MEMB     27       CHL1     H21C     HAL3     0.900000E-01   1.00800           0
      2874 MEMB     27       CHL1     C22      CTL2    -0.180000       12.0110           0
      2875 MEMB     27       CHL1     H22A     HAL2     0.900000E-01   1.00800           0
      2876 MEMB     27       CHL1     H22B     HAL2     0.900000E-01   1.00800           0
      2877 MEMB     27       CHL1     C23      CTL2    -0.180000       12.0110           0
      2878 MEMB     27       CHL1     H23A     HAL2     0.900000E-01   1.00800           0
      2879 MEMB     27       CHL1     H23B     HAL2     0.900000E-01   1.00800           0
      2880 MEMB     27       CHL1     C24      CTL2    -0.180000       12.0110           0
      2881 MEMB     27       CHL1     H24A     HAL2     0.900000E-01   1.00800           0
      2882 MEMB     27       CHL1     H24B     HAL2     0.900000E-01   1.00800           0
      2883 MEMB     27       CHL1     C25      CTL1    -0.900000E-01   12.0110           0
      2884 MEMB     27       CHL1     H25      HAL1     0.900000E-01   1.00800           0
      2885 MEMB     27       CHL1     C26      CTL3    -0.270000       12.0110           0
      2886 MEMB     27       CHL1     H26A     HAL3     0.900000E-01   1.00800           0
      2887 MEMB     27       CHL1     H26B     HAL3     0.900000E-01   1.00800           0
      2888 MEMB     27       CHL1     H26C     HAL3     0.900000E-01   1.00800           0
      2889 MEMB     27       CHL1     C27      CTL3    -0.270000       12.0110           0
      2890 MEMB     27       CHL1     H27A     HAL3     0.900000E-01   1.00800           0
      2891 MEMB     27       CHL1     H27B     HAL3     0.900000E-01   1.00800           0
      2892 MEMB     27       CHL1     H27C     HAL3     0.900000E-01   1.00800           0
      2893 MEMB     28       SAPE     N        NH3L    -0.300000       14.0070           0
      2894 MEMB     28       SAPE     HN1      HCL      0.330000       1.00800           0
      2895 MEMB     28       SAPE     HN2      HCL      0.330000       1.00800           0
      2896 MEMB     28       SAPE     HN3      HCL      0.330000       1.00800           0
      2897 MEMB     28       SAPE     C12      CTL2     0.130000       12.0110           0
      2898 MEMB     28       SAPE     H12A     HAL2     0.900000E-01   1.00800           0
      2899 MEMB     28       SAPE     H12B     HAL2     0.900000E-01   1.00800           0
      2900 MEMB     28       SAPE     C11      CTL2    -0.800000E-01   12.0110           0
      2901 MEMB     28       SAPE     H11A     HAL2     0.900000E-01   1.00800           0
      2902 MEMB     28       SAPE     H11B     HAL2     0.900000E-01   1.00800           0
      2903 MEMB     28       SAPE     P        PL        1.50000       30.9740           0
      2904 MEMB     28       SAPE     O13      O2L     -0.780000       15.9994           0
      2905 MEMB     28       SAPE     O14      O2L     -0.780000       15.9994           0
      2906 MEMB     28       SAPE     O12      OSLP    -0.570000       15.9994           0
      2907 MEMB     28       SAPE     O11      OSLP    -0.570000       15.9994           0
      2908 MEMB     28       SAPE     C1       CTL2    -0.800000E-01   12.0110           0
      2909 MEMB     28       SAPE     HA       HAL2     0.900000E-01   1.00800           0
      2910 MEMB     28       SAPE     HB       HAL2     0.900000E-01   1.00800           0
      2911 MEMB     28       SAPE     C2       CTL1     0.170000       12.0110           0
      2912 MEMB     28       SAPE     HS       HAL1     0.900000E-01   1.00800           0
      2913 MEMB     28       SAPE     O21      OSL     -0.490000       15.9994           0
      2914 MEMB     28       SAPE     C21      CL       0.900000       12.0110           0
      2915 MEMB     28       SAPE     O22      OBL     -0.630000       15.9994           0
      2916 MEMB     28       SAPE     C22      CTL2    -0.220000       12.0110           0
      2917 MEMB     28       SAPE     H2R      HAL2     0.900000E-01   1.00800           0
      2918 MEMB     28       SAPE     H2S      HAL2     0.900000E-01   1.00800           0
      2919 MEMB     28       SAPE     C3       CTL2     0.800000E-01   12.0110           0
      2920 MEMB     28       SAPE     HX       HAL2     0.900000E-01   1.00800           0
      2921 MEMB     28       SAPE     HY       HAL2     0.900000E-01   1.00800           0
      2922 MEMB     28       SAPE     O31      OSL     -0.490000       15.9994           0
      2923 MEMB     28       SAPE     C31      CL       0.900000       12.0110           0
      2924 MEMB     28       SAPE     O32      OBL     -0.630000       15.9994           0
      2925 MEMB     28       SAPE     C32      CTL2    -0.220000       12.0110           0
      2926 MEMB     28       SAPE     H2X      HAL2     0.900000E-01   1.00800           0
      2927 MEMB     28       SAPE     H2Y      HAL2     0.900000E-01   1.00800           0
      2928 MEMB     28       SAPE     C23      CTL2    -0.180000       12.0110           0
      2929 MEMB     28       SAPE     H3R      HAL2     0.900000E-01   1.00800           0
      2930 MEMB     28       SAPE     H3S      HAL2     0.900000E-01   1.00800           0
      2931 MEMB     28       SAPE     C24      CTL2    -0.180000       12.0110           0
      2932 MEMB     28       SAPE     H4R      HAL2     0.900000E-01   1.00800           0
      2933 MEMB     28       SAPE     H4S      HAL2     0.900000E-01   1.00800           0
      2934 MEMB     28       SAPE     C25      CEL1    -0.150000       12.0110           0
      2935 MEMB     28       SAPE     H5R      HEL1     0.150000       1.00800           0
      2936 MEMB     28       SAPE     C26      CEL1    -0.150000       12.0110           0
      2937 MEMB     28       SAPE     H6R      HEL1     0.150000       1.00800           0
      2938 MEMB     28       SAPE     C27      CTL2    -0.180000       12.0110           0
      2939 MEMB     28       SAPE     H7R      HAL2     0.900000E-01   1.00800           0
      2940 MEMB     28       SAPE     H7S      HAL2     0.900000E-01   1.00800           0
      2941 MEMB     28       SAPE     C28      CEL1    -0.150000       12.0110           0
      2942 MEMB     28       SAPE     H8R      HEL1     0.150000       1.00800           0
      2943 MEMB     28       SAPE     C29      CEL1    -0.150000       12.0110           0
      2944 MEMB     28       SAPE     H9R      HEL1     0.150000       1.00800           0
      2945 MEMB     28       SAPE     C210     CTL2    -0.180000       12.0110           0
      2946 MEMB     28       SAPE     H10R     HAL2     0.900000E-01   1.00800           0
      2947 MEMB     28       SAPE     H10S     HAL2     0.900000E-01   1.00800           0
      2948 MEMB     28       SAPE     C211     CEL1    -0.150000       12.0110           0
      2949 MEMB     28       SAPE     H11R     HEL1     0.150000       1.00800           0
      2950 MEMB     28       SAPE     C212     CEL1    -0.150000       12.0110           0
      2951 MEMB     28       SAPE     H12R     HEL1     0.150000       1.00800           0
      2952 MEMB     28       SAPE     C213     CTL2    -0.180000       12.0110           0
      2953 MEMB     28       SAPE     H13R     HAL2     0.900000E-01   1.00800           0
      2954 MEMB     28       SAPE     H13S     HAL2     0.900000E-01   1.00800           0
      2955 MEMB     28       SAPE     C214     CEL1    -0.150000       12.0110           0
      2956 MEMB     28       SAPE     H14R     HEL1     0.150000       1.00800           0
      2957 MEMB     28       SAPE     C215     CEL1    -0.150000       12.0110           0
      2958 MEMB     28       SAPE     H15R     HEL1     0.150000       1.00800           0
      2959 MEMB     28       SAPE     C216     CTL2    -0.180000       12.0110           0
      2960 MEMB     28       SAPE     H16R     HAL2     0.900000E-01   1.00800           0
      2961 MEMB     28       SAPE     H16S     HAL2     0.900000E-01   1.00800           0
      2962 MEMB     28       SAPE     C217     CTL2    -0.180000       12.0110           0
      2963 MEMB     28       SAPE     H17R     HAL2     0.900000E-01   1.00800           0
      2964 MEMB     28       SAPE     H17S     HAL2     0.900000E-01   1.00800           0
      2965 MEMB     28       SAPE     C218     CTL2    -0.180000       12.0110           0
      2966 MEMB     28       SAPE     H18R     HAL2     0.900000E-01   1.00800           0
      2967 MEMB     28       SAPE     H18S     HAL2     0.900000E-01   1.00800           0
      2968 MEMB     28       SAPE     C219     CTL2    -0.180000       12.0110           0
      2969 MEMB     28       SAPE     H19R     HAL2     0.900000E-01   1.00800           0
      2970 MEMB     28       SAPE     H19S     HAL2     0.900000E-01   1.00800           0
      2971 MEMB     28       SAPE     C220     CTL3    -0.270000       12.0110           0
      2972 MEMB     28       SAPE     H20R     HAL3     0.900000E-01   1.00800           0
      2973 MEMB     28       SAPE     H20S     HAL3     0.900000E-01   1.00800           0
      2974 MEMB     28       SAPE     H20T     HAL3     0.900000E-01   1.00800           0
      2975 MEMB     28       SAPE     C33      CTL2    -0.180000       12.0110           0
      2976 MEMB     28       SAPE     H3X      HAL2     0.900000E-01   1.00800           0
      2977 MEMB     28       SAPE     H3Y      HAL2     0.900000E-01   1.00800           0
      2978 MEMB     28       SAPE     C34      CTL2    -0.180000       12.0110           0
      2979 MEMB     28       SAPE     H4X      HAL2     0.900000E-01   1.00800           0
      2980 MEMB     28       SAPE     H4Y      HAL2     0.900000E-01   1.00800           0
      2981 MEMB     28       SAPE     C35      CTL2    -0.180000       12.0110           0
      2982 MEMB     28       SAPE     H5X      HAL2     0.900000E-01   1.00800           0
      2983 MEMB     28       SAPE     H5Y      HAL2     0.900000E-01   1.00800           0
      2984 MEMB     28       SAPE     C36      CTL2    -0.180000       12.0110           0
      2985 MEMB     28       SAPE     H6X      HAL2     0.900000E-01   1.00800           0
      2986 MEMB     28       SAPE     H6Y      HAL2     0.900000E-01   1.00800           0
      2987 MEMB     28       SAPE     C37      CTL2    -0.180000       12.0110           0
      2988 MEMB     28       SAPE     H7X      HAL2     0.900000E-01   1.00800           0
      2989 MEMB     28       SAPE     H7Y      HAL2     0.900000E-01   1.00800           0
      2990 MEMB     28       SAPE     C38      CTL2    -0.180000       12.0110           0
      2991 MEMB     28       SAPE     H8X      HAL2     0.900000E-01   1.00800           0
      2992 MEMB     28       SAPE     H8Y      HAL2     0.900000E-01   1.00800           0
      2993 MEMB     28       SAPE     C39      CTL2    -0.180000       12.0110           0
      2994 MEMB     28       SAPE     H9X      HAL2     0.900000E-01   1.00800           0
      2995 MEMB     28       SAPE     H9Y      HAL2     0.900000E-01   1.00800           0
      2996 MEMB     28       SAPE     C310     CTL2    -0.180000       12.0110           0
      2997 MEMB     28       SAPE     H10X     HAL2     0.900000E-01   1.00800           0
      2998 MEMB     28       SAPE     H10Y     HAL2     0.900000E-01   1.00800           0
      2999 MEMB     28       SAPE     C311     CTL2    -0.180000       12.0110           0
      3000 MEMB     28       SAPE     H11X     HAL2     0.900000E-01   1.00800           0
      3001 MEMB     28       SAPE     H11Y     HAL2     0.900000E-01   1.00800           0
      3002 MEMB     28       SAPE     C312     CTL2    -0.180000       12.0110           0
      3003 MEMB     28       SAPE     H12X     HAL2     0.900000E-01   1.00800           0
      3004 MEMB     28       SAPE     H12Y     HAL2     0.900000E-01   1.00800           0
      3005 MEMB     28       SAPE     C313     CTL2    -0.180000       12.0110           0
      3006 MEMB     28       SAPE     H13X     HAL2     0.900000E-01   1.00800           0
      3007 MEMB     28       SAPE     H13Y     HAL2     0.900000E-01   1.00800           0
      3008 MEMB     28       SAPE     C314     CTL2    -0.180000       12.0110           0
      3009 MEMB     28       SAPE     H14X     HAL2     0.900000E-01   1.00800           0
      3010 MEMB     28       SAPE     H14Y     HAL2     0.900000E-01   1.00800           0
      3011 MEMB     28       SAPE     C315     CTL2    -0.180000       12.0110           0
      3012 MEMB     28       SAPE     H15X     HAL2     0.900000E-01   1.00800           0
      3013 MEMB     28       SAPE     H15Y     HAL2     0.900000E-01   1.00800           0
      3014 MEMB     28       SAPE     C316     CTL2    -0.180000       12.0110           0
      3015 MEMB     28       SAPE     H16X     HAL2     0.900000E-01   1.00800           0
      3016 MEMB     28       SAPE     H16Y     HAL2     0.900000E-01   1.00800           0
      3017 MEMB     28       SAPE     C317     CTL2    -0.180000       12.0110           0
      3018 MEMB     28       SAPE     H17X     HAL2     0.900000E-01   1.00800           0
      3019 MEMB     28       SAPE     H17Y     HAL2     0.900000E-01   1.00800           0
      3020 MEMB     28       SAPE     C318     CTL3    -0.270000       12.0110           0
      3021 MEMB     28       SAPE     H18X     HAL3     0.900000E-01   1.00800           0
      3022 MEMB     28       SAPE     H18Y     HAL3     0.900000E-01   1.00800           0
      3023 MEMB     28       SAPE     H18Z     HAL3     0.900000E-01   1.00800           0
      3024 MEMB     29       SAPC     N        NTL     -0.600000       14.0070           0
      3025 MEMB     29       SAPC     C12      CTL2    -0.100000       12.0110           0
      3026 MEMB     29       SAPC     H12A     HL       0.250000       1.00800           0
      3027 MEMB     29       SAPC     H12B     HL       0.250000       1.00800           0
      3028 MEMB     29       SAPC     C13      CTL5    -0.350000       12.0110           0
      3029 MEMB     29       SAPC     H13A     HL       0.250000       1.00800           0
      3030 MEMB     29       SAPC     H13B     HL       0.250000       1.00800           0
      3031 MEMB     29       SAPC     H13C     HL       0.250000       1.00800           0
      3032 MEMB     29       SAPC     C14      CTL5    -0.350000       12.0110           0
      3033 MEMB     29       SAPC     H14A     HL       0.250000       1.00800           0
      3034 MEMB     29       SAPC     H14B     HL       0.250000       1.00800           0
      3035 MEMB     29       SAPC     H14C     HL       0.250000       1.00800           0
      3036 MEMB     29       SAPC     C15      CTL5    -0.350000       12.0110           0
      3037 MEMB     29       SAPC     H15A     HL       0.250000       1.00800           0
      3038 MEMB     29       SAPC     H15B     HL       0.250000       1.00800           0
      3039 MEMB     29       SAPC     H15C     HL       0.250000       1.00800           0
      3040 MEMB     29       SAPC     C11      CTL2    -0.800000E-01   12.0110           0
      3041 MEMB     29       SAPC     H11A     HAL2     0.900000E-01   1.00800           0
      3042 MEMB     29       SAPC     H11B     HAL2     0.900000E-01   1.00800           0
      3043 MEMB     29       SAPC     P        PL        1.50000       30.9740           0
      3044 MEMB     29       SAPC     O13      O2L     -0.780000       15.9994           0
      3045 MEMB     29       SAPC     O14      O2L     -0.780000       15.9994           0
      3046 MEMB     29       SAPC     O12      OSLP    -0.570000       15.9994           0
      3047 MEMB     29       SAPC     O11      OSLP    -0.570000       15.9994           0
      3048 MEMB     29       SAPC     C1       CTL2    -0.800000E-01   12.0110           0
      3049 MEMB     29       SAPC     HA       HAL2     0.900000E-01   1.00800           0
      3050 MEMB     29       SAPC     HB       HAL2     0.900000E-01   1.00800           0
      3051 MEMB     29       SAPC     C2       CTL1     0.170000       12.0110           0
      3052 MEMB     29       SAPC     HS       HAL1     0.900000E-01   1.00800           0
      3053 MEMB     29       SAPC     O21      OSL     -0.490000       15.9994           0
      3054 MEMB     29       SAPC     C21      CL       0.900000       12.0110           0
      3055 MEMB     29       SAPC     O22      OBL     -0.630000       15.9994           0
      3056 MEMB     29       SAPC     C22      CTL2    -0.220000       12.0110           0
      3057 MEMB     29       SAPC     H2R      HAL2     0.900000E-01   1.00800           0
      3058 MEMB     29       SAPC     H2S      HAL2     0.900000E-01   1.00800           0
      3059 MEMB     29       SAPC     C3       CTL2     0.800000E-01   12.0110           0
      3060 MEMB     29       SAPC     HX       HAL2     0.900000E-01   1.00800           0
      3061 MEMB     29       SAPC     HY       HAL2     0.900000E-01   1.00800           0
      3062 MEMB     29       SAPC     O31      OSL     -0.490000       15.9994           0
      3063 MEMB     29       SAPC     C31      CL       0.900000       12.0110           0
      3064 MEMB     29       SAPC     O32      OBL     -0.630000       15.9994           0
      3065 MEMB     29       SAPC     C32      CTL2    -0.220000       12.0110           0
      3066 MEMB     29       SAPC     H2X      HAL2     0.900000E-01   1.00800           0
      3067 MEMB     29       SAPC     H2Y      HAL2     0.900000E-01   1.00800           0
      3068 MEMB     29       SAPC     C23      CTL2    -0.180000       12.0110           0
      3069 MEMB     29       SAPC     H3R      HAL2     0.900000E-01   1.00800           0
      3070 MEMB     29       SAPC     H3S      HAL2     0.900000E-01   1.00800           0
      3071 MEMB     29       SAPC     C24      CTL2    -0.180000       12.0110           0
      3072 MEMB     29       SAPC     H4R      HAL2     0.900000E-01   1.00800           0
      3073 MEMB     29       SAPC     H4S      HAL2     0.900000E-01   1.00800           0
      3074 MEMB     29       SAPC     C25      CEL1    -0.150000       12.0110           0
      3075 MEMB     29       SAPC     H5R      HEL1     0.150000       1.00800           0
      3076 MEMB     29       SAPC     C26      CEL1    -0.150000       12.0110           0
      3077 MEMB     29       SAPC     H6R      HEL1     0.150000       1.00800           0
      3078 MEMB     29       SAPC     C27      CTL2    -0.180000       12.0110           0
      3079 MEMB     29       SAPC     H7R      HAL2     0.900000E-01   1.00800           0
      3080 MEMB     29       SAPC     H7S      HAL2     0.900000E-01   1.00800           0
      3081 MEMB     29       SAPC     C28      CEL1    -0.150000       12.0110           0
      3082 MEMB     29       SAPC     H8R      HEL1     0.150000       1.00800           0
      3083 MEMB     29       SAPC     C29      CEL1    -0.150000       12.0110           0
      3084 MEMB     29       SAPC     H9R      HEL1     0.150000       1.00800           0
      3085 MEMB     29       SAPC     C210     CTL2    -0.180000       12.0110           0
      3086 MEMB     29       SAPC     H10R     HAL2     0.900000E-01   1.00800           0
      3087 MEMB     29       SAPC     H10S     HAL2     0.900000E-01   1.00800           0
      3088 MEMB     29       SAPC     C211     CEL1    -0.150000       12.0110           0
      3089 MEMB     29       SAPC     H11R     HEL1     0.150000       1.00800           0
      3090 MEMB     29       SAPC     C212     CEL1    -0.150000       12.0110           0
      3091 MEMB     29       SAPC     H12R     HEL1     0.150000       1.00800           0
      3092 MEMB     29       SAPC     C213     CTL2    -0.180000       12.0110           0
      3093 MEMB     29       SAPC     H13R     HAL2     0.900000E-01   1.00800           0
      3094 MEMB     29       SAPC     H13S     HAL2     0.900000E-01   1.00800           0
      3095 MEMB     29       SAPC     C214     CEL1    -0.150000       12.0110           0
      3096 MEMB     29       SAPC     H14R     HEL1     0.150000       1.00800           0
      3097 MEMB     29       SAPC     C215     CEL1    -0.150000       12.0110           0
      3098 MEMB     29       SAPC     H15R     HEL1     0.150000       1.00800           0
      3099 MEMB     29       SAPC     C216     CTL2    -0.180000       12.0110           0
      3100 MEMB     29       SAPC     H16R     HAL2     0.900000E-01   1.00800           0
      3101 MEMB     29       SAPC     H16S     HAL2     0.900000E-01   1.00800           0
      3102 MEMB     29       SAPC     C217     CTL2    -0.180000       12.0110           0
      3103 MEMB     29       SAPC     H17R     HAL2     0.900000E-01   1.00800           0
      3104 MEMB     29       SAPC     H17S     HAL2     0.900000E-01   1.00800           0
      3105 MEMB     29       SAPC     C218     CTL2    -0.270000       12.0110           0
      3106 MEMB     29       SAPC     H18R     HAL2     0.900000E-01   1.00800           0
      3107 MEMB     29       SAPC     H18S     HAL2     0.900000E-01   1.00800           0
      3108 MEMB     29       SAPC     C219     CTL2    -0.180000       12.0110           0
      3109 MEMB     29       SAPC     H19R     HAL2     0.900000E-01   1.00800           0
      3110 MEMB     29       SAPC     H19S     HAL2     0.900000E-01   1.00800           0
      3111 MEMB     29       SAPC     C220     CTL3    -0.180000       12.0110           0
      3112 MEMB     29       SAPC     H20R     HAL3     0.900000E-01   1.00800           0
      3113 MEMB     29       SAPC     H20S     HAL3     0.900000E-01   1.00800           0
      3114 MEMB     29       SAPC     H20T     HAL3     0.900000E-01   1.00800           0
      3115 MEMB     29       SAPC     C33      CTL2    -0.180000       12.0110           0
      3116 MEMB     29       SAPC     H3X      HAL2     0.900000E-01   1.00800           0
      3117 MEMB     29       SAPC     H3Y      HAL2     0.900000E-01   1.00800           0
      3118 MEMB     29       SAPC     C34      CTL2    -0.180000       12.0110           0
      3119 MEMB     29       SAPC     H4X      HAL2     0.900000E-01   1.00800           0
      3120 MEMB     29       SAPC     H4Y      HAL2     0.900000E-01   1.00800           0
      3121 MEMB     29       SAPC     C35      CTL2    -0.180000       12.0110           0
      3122 MEMB     29       SAPC     H5X      HAL2     0.900000E-01   1.00800           0
      3123 MEMB     29       SAPC     H5Y      HAL2     0.900000E-01   1.00800           0
      3124 MEMB     29       SAPC     C36      CTL2    -0.180000       12.0110           0
      3125 MEMB     29       SAPC     H6X      HAL2     0.900000E-01   1.00800           0
      3126 MEMB     29       SAPC     H6Y      HAL2     0.900000E-01   1.00800           0
      3127 MEMB     29       SAPC     C37      CTL2    -0.180000       12.0110           0
      3128 MEMB     29       SAPC     H7X      HAL2     0.900000E-01   1.00800           0
      3129 MEMB     29       SAPC     H7Y      HAL2     0.900000E-01   1.00800           0
      3130 MEMB     29       SAPC     C38      CTL2    -0.180000       12.0110           0
      3131 MEMB     29       SAPC     H8X      HAL2     0.900000E-01   1.00800           0
      3132 MEMB     29       SAPC     H8Y      HAL2     0.900000E-01   1.00800           0
      3133 MEMB     29       SAPC     C39      CTL2    -0.180000       12.0110           0
      3134 MEMB     29       SAPC     H9X      HAL2     0.900000E-01   1.00800           0
      3135 MEMB     29       SAPC     H9Y      HAL2     0.900000E-01   1.00800           0
      3136 MEMB     29       SAPC     C310     CTL2    -0.180000       12.0110           0
      3137 MEMB     29       SAPC     H10X     HAL2     0.900000E-01   1.00800           0
      3138 MEMB     29       SAPC     H10Y     HAL2     0.900000E-01   1.00800           0
      3139 MEMB     29       SAPC     C311     CTL2    -0.180000       12.0110           0
      3140 MEMB     29       SAPC     H11X     HAL2     0.900000E-01   1.00800           0
      3141 MEMB     29       SAPC     H11Y     HAL2     0.900000E-01   1.00800           0
      3142 MEMB     29       SAPC     C312     CTL2    -0.180000       12.0110           0
      3143 MEMB     29       SAPC     H12X     HAL2     0.900000E-01   1.00800           0
      3144 MEMB     29       SAPC     H12Y     HAL2     0.900000E-01   1.00800           0
      3145 MEMB     29       SAPC     C313     CTL2    -0.180000       12.0110           0
      3146 MEMB     29       SAPC     H13X     HAL2     0.900000E-01   1.00800           0
      3147 MEMB     29       SAPC     H13Y     HAL2     0.900000E-01   1.00800           0
      3148 MEMB     29       SAPC     C314     CTL2    -0.180000       12.0110           0
      3149 MEMB     29       SAPC     H14X     HAL2     0.900000E-01   1.00800           0
      3150 MEMB     29       SAPC     H14Y     HAL2     0.900000E-01   1.00800           0
      3151 MEMB     29       SAPC     C315     CTL2    -0.180000       12.0110           0
      3152 MEMB     29       SAPC     H15X     HAL2     0.900000E-01   1.00800           0
      3153 MEMB     29       SAPC     H15Y     HAL2     0.900000E-01   1.00800           0
      3154 MEMB     29       SAPC     C316     CTL2    -0.180000       12.0110           0
      3155 MEMB     29       SAPC     H16X     HAL2     0.900000E-01   1.00800           0
      3156 MEMB     29       SAPC     H16Y     HAL2     0.900000E-01   1.00800           0
      3157 MEMB     29       SAPC     C317     CTL2    -0.180000       12.0110           0
      3158 MEMB     29       SAPC     H17X     HAL2     0.900000E-01   1.00800           0
      3159 MEMB     29       SAPC     H17Y     HAL2     0.900000E-01   1.00800           0
      3160 MEMB     29       SAPC     C318     CTL3    -0.270000       12.0110           0
      3161 MEMB     29       SAPC     H18X     HAL3     0.900000E-01   1.00800           0
      3162 MEMB     29       SAPC     H18Y     HAL3     0.900000E-01   1.00800           0
      3163 MEMB     29       SAPC     H18Z     HAL3     0.900000E-01   1.00800           0
      3164 MEMB     30       SLPC     N        NTL     -0.600000       14.0070           0
      3165 MEMB     30       SLPC     C13      CTL5    -0.350000       12.0110           0
      3166 MEMB     30       SLPC     H13A     HL       0.250000       1.00800           0
      3167 MEMB     30       SLPC     H13B     HL       0.250000       1.00800           0
      3168 MEMB     30       SLPC     H13C     HL       0.250000       1.00800           0
      3169 MEMB     30       SLPC     C14      CTL5    -0.350000       12.0110           0
      3170 MEMB     30       SLPC     H14A     HL       0.250000       1.00800           0
      3171 MEMB     30       SLPC     H14B     HL       0.250000       1.00800           0
      3172 MEMB     30       SLPC     H14C     HL       0.250000       1.00800           0
      3173 MEMB     30       SLPC     C15      CTL5    -0.350000       12.0110           0
      3174 MEMB     30       SLPC     H15A     HL       0.250000       1.00800           0
      3175 MEMB     30       SLPC     H15B     HL       0.250000       1.00800           0
      3176 MEMB     30       SLPC     H15C     HL       0.250000       1.00800           0
      3177 MEMB     30       SLPC     C12      CTL2    -0.100000       12.0110           0
      3178 MEMB     30       SLPC     H12A     HL       0.250000       1.00800           0
      3179 MEMB     30       SLPC     H12B     HL       0.250000       1.00800           0
      3180 MEMB     30       SLPC     C11      CTL2    -0.800000E-01   12.0110           0
      3181 MEMB     30       SLPC     H11A     HAL2     0.900000E-01   1.00800           0
      3182 MEMB     30       SLPC     H11B     HAL2     0.900000E-01   1.00800           0
      3183 MEMB     30       SLPC     P        PL        1.50000       30.9740           0
      3184 MEMB     30       SLPC     O13      O2L     -0.780000       15.9994           0
      3185 MEMB     30       SLPC     O14      O2L     -0.780000       15.9994           0
      3186 MEMB     30       SLPC     O12      OSLP    -0.570000       15.9994           0
      3187 MEMB     30       SLPC     O11      OSLP    -0.570000       15.9994           0
      3188 MEMB     30       SLPC     C1       CTL2    -0.800000E-01   12.0110           0
      3189 MEMB     30       SLPC     HA       HAL2     0.900000E-01   1.00800           0
      3190 MEMB     30       SLPC     HB       HAL2     0.900000E-01   1.00800           0
      3191 MEMB     30       SLPC     C2       CTL1     0.170000       12.0110           0
      3192 MEMB     30       SLPC     HS       HAL1     0.900000E-01   1.00800           0
      3193 MEMB     30       SLPC     O21      OSL     -0.490000       15.9994           0
      3194 MEMB     30       SLPC     C21      CL       0.900000       12.0110           0
      3195 MEMB     30       SLPC     O22      OBL     -0.630000       15.9994           0
      3196 MEMB     30       SLPC     C22      CTL2    -0.220000       12.0110           0
      3197 MEMB     30       SLPC     H2R      HAL2     0.900000E-01   1.00800           0
      3198 MEMB     30       SLPC     H2S      HAL2     0.900000E-01   1.00800           0
      3199 MEMB     30       SLPC     C3       CTL2     0.800000E-01   12.0110           0
      3200 MEMB     30       SLPC     HX       HAL2     0.900000E-01   1.00800           0
      3201 MEMB     30       SLPC     HY       HAL2     0.900000E-01   1.00800           0
      3202 MEMB     30       SLPC     O31      OSL     -0.490000       15.9994           0
      3203 MEMB     30       SLPC     C31      CL       0.900000       12.0110           0
      3204 MEMB     30       SLPC     O32      OBL     -0.630000       15.9994           0
      3205 MEMB     30       SLPC     C32      CTL2    -0.220000       12.0110           0
      3206 MEMB     30       SLPC     H2X      HAL2     0.900000E-01   1.00800           0
      3207 MEMB     30       SLPC     H2Y      HAL2     0.900000E-01   1.00800           0
      3208 MEMB     30       SLPC     C23      CTL2    -0.180000       12.0110           0
      3209 MEMB     30       SLPC     H3R      HAL2     0.900000E-01   1.00800           0
      3210 MEMB     30       SLPC     H3S      HAL2     0.900000E-01   1.00800           0
      3211 MEMB     30       SLPC     C24      CTL2    -0.180000       12.0110           0
      3212 MEMB     30       SLPC     H4R      HAL2     0.900000E-01   1.00800           0
      3213 MEMB     30       SLPC     H4S      HAL2     0.900000E-01   1.00800           0
      3214 MEMB     30       SLPC     C25      CTL2    -0.180000       12.0110           0
      3215 MEMB     30       SLPC     H5R      HAL2     0.900000E-01   1.00800           0
      3216 MEMB     30       SLPC     H5S      HAL2     0.900000E-01   1.00800           0
      3217 MEMB     30       SLPC     C26      CTL2    -0.180000       12.0110           0
      3218 MEMB     30       SLPC     H6R      HAL2     0.900000E-01   1.00800           0
      3219 MEMB     30       SLPC     H6S      HAL2     0.900000E-01   1.00800           0
      3220 MEMB     30       SLPC     C27      CTL2    -0.180000       12.0110           0
      3221 MEMB     30       SLPC     H7R      HAL2     0.900000E-01   1.00800           0
      3222 MEMB     30       SLPC     H7S      HAL2     0.900000E-01   1.00800           0
      3223 MEMB     30       SLPC     C28      CTL2    -0.180000       12.0110           0
      3224 MEMB     30       SLPC     H8R      HAL2     0.900000E-01   1.00800           0
      3225 MEMB     30       SLPC     H8S      HAL2     0.900000E-01   1.00800           0
      3226 MEMB     30       SLPC     C29      CEL1    -0.150000       12.0110           0
      3227 MEMB     30       SLPC     H9R      HEL1     0.150000       1.00800           0
      3228 MEMB     30       SLPC     C210     CEL1    -0.150000       12.0110           0
      3229 MEMB     30       SLPC     H10R     HEL1     0.150000       1.00800           0
      3230 MEMB     30       SLPC     C211     CTL2    -0.180000       12.0110           0
      3231 MEMB     30       SLPC     H11R     HAL2     0.900000E-01   1.00800           0
      3232 MEMB     30       SLPC     H11S     HAL2     0.900000E-01   1.00800           0
      3233 MEMB     30       SLPC     C212     CEL1    -0.150000       12.0110           0
      3234 MEMB     30       SLPC     H12R     HEL1     0.150000       1.00800           0
      3235 MEMB     30       SLPC     C213     CEL1    -0.150000       12.0110           0
      3236 MEMB     30       SLPC     H13R     HEL1     0.150000       1.00800           0
      3237 MEMB     30       SLPC     C214     CTL2    -0.180000       12.0110           0
      3238 MEMB     30       SLPC     H14R     HAL2     0.900000E-01   1.00800           0
      3239 MEMB     30       SLPC     H14S     HAL2     0.900000E-01   1.00800           0
      3240 MEMB     30       SLPC     C215     CTL2    -0.180000       12.0110           0
      3241 MEMB     30       SLPC     H15R     HAL2     0.900000E-01   1.00800           0
      3242 MEMB     30       SLPC     H15S     HAL2     0.900000E-01   1.00800           0
      3243 MEMB     30       SLPC     C216     CTL2    -0.180000       12.0110           0
      3244 MEMB     30       SLPC     H16R     HAL2     0.900000E-01   1.00800           0
      3245 MEMB     30       SLPC     H16S     HAL2     0.900000E-01   1.00800           0
      3246 MEMB     30       SLPC     C217     CTL2    -0.180000       12.0110           0
      3247 MEMB     30       SLPC     H17R     HAL2     0.900000E-01   1.00800           0
      3248 MEMB     30       SLPC     H17S     HAL2     0.900000E-01   1.00800           0
      3249 MEMB     30       SLPC     C218     CTL3    -0.270000       12.0110           0
      3250 MEMB     30       SLPC     H18R     HAL3     0.900000E-01   1.00800           0
      3251 MEMB     30       SLPC     H18S     HAL3     0.900000E-01   1.00800           0
      3252 MEMB     30       SLPC     H18T     HAL3     0.900000E-01   1.00800           0
      3253 MEMB     30       SLPC     C33      CTL2    -0.180000       12.0110           0
      3254 MEMB     30       SLPC     H3X      HAL2     0.900000E-01   1.00800           0
      3255 MEMB     30       SLPC     H3Y      HAL2     0.900000E-01   1.00800           0
      3256 MEMB     30       SLPC     C34      CTL2    -0.180000       12.0110           0
      3257 MEMB     30       SLPC     H4X      HAL2     0.900000E-01   1.00800           0
      3258 MEMB     30       SLPC     H4Y      HAL2     0.900000E-01   1.00800           0
      3259 MEMB     30       SLPC     C35      CTL2    -0.180000       12.0110           0
      3260 MEMB     30       SLPC     H5X      HAL2     0.900000E-01   1.00800           0
      3261 MEMB     30       SLPC     H5Y      HAL2     0.900000E-01   1.00800           0
      3262 MEMB     30       SLPC     C36      CTL2    -0.180000       12.0110           0
      3263 MEMB     30       SLPC     H6X      HAL2     0.900000E-01   1.00800           0
      3264 MEMB     30       SLPC     H6Y      HAL2     0.900000E-01   1.00800           0
      3265 MEMB     30       SLPC     C37      CTL2    -0.180000       12.0110           0
      3266 MEMB     30       SLPC     H7X      HAL2     0.900000E-01   1.00800           0
      3267 MEMB     30       SLPC     H7Y      HAL2     0.900000E-01   1.00800           0
      3268 MEMB     30       SLPC     C38      CTL2    -0.180000       12.0110           0
      3269 MEMB     30       SLPC     H8X      HAL2     0.900000E-01   1.00800           0
      3270 MEMB     30       SLPC     H8Y      HAL2     0.900000E-01   1.00800           0
      3271 MEMB     30       SLPC     C39      CTL2    -0.180000       12.0110           0
      3272 MEMB     30       SLPC     H9X      HAL2     0.900000E-01   1.00800           0
      3273 MEMB     30       SLPC     H9Y      HAL2     0.900000E-01   1.00800           0
      3274 MEMB     30       SLPC     C310     CTL2    -0.180000       12.0110           0
      3275 MEMB     30       SLPC     H10X     HAL2     0.900000E-01   1.00800           0
      3276 MEMB     30       SLPC     H10Y     HAL2     0.900000E-01   1.00800           0
      3277 MEMB     30       SLPC     C311     CTL2    -0.180000       12.0110           0
      3278 MEMB     30       SLPC     H11X     HAL2     0.900000E-01   1.00800           0
      3279 MEMB     30       SLPC     H11Y     HAL2     0.900000E-01   1.00800           0
      3280 MEMB     30       SLPC     C312     CTL2    -0.180000       12.0110           0
      3281 MEMB     30       SLPC     H12X     HAL2     0.900000E-01   1.00800           0
      3282 MEMB     30       SLPC     H12Y     HAL2     0.900000E-01   1.00800           0
      3283 MEMB     30       SLPC     C313     CTL2    -0.180000       12.0110           0
      3284 MEMB     30       SLPC     H13X     HAL2     0.900000E-01   1.00800           0
      3285 MEMB     30       SLPC     H13Y     HAL2     0.900000E-01   1.00800           0
      3286 MEMB     30       SLPC     C314     CTL2    -0.180000       12.0110           0
      3287 MEMB     30       SLPC     H14X     HAL2     0.900000E-01   1.00800           0
      3288 MEMB     30       SLPC     H14Y     HAL2     0.900000E-01   1.00800           0
      3289 MEMB     30       SLPC     C315     CTL2    -0.180000       12.0110           0
      3290 MEMB     30       SLPC     H15X     HAL2     0.900000E-01   1.00800           0
      3291 MEMB     30       SLPC     H15Y     HAL2     0.900000E-01   1.00800           0
      3292 MEMB     30       SLPC     C316     CTL2    -0.180000       12.0110           0
      3293 MEMB     30       SLPC     H16X     HAL2     0.900000E-01   1.00800           0
      3294 MEMB     30       SLPC     H16Y     HAL2     0.900000E-01   1.00800           0
      3295 MEMB     30       SLPC     C317     CTL2    -0.180000       12.0110           0
      3296 MEMB     30       SLPC     H17X     HAL2     0.900000E-01   1.00800           0
      3297 MEMB     30       SLPC     H17Y     HAL2     0.900000E-01   1.00800           0
      3298 MEMB     30       SLPC     C318     CTL3    -0.270000       12.0110           0
      3299 MEMB     30       SLPC     H18X     HAL3     0.900000E-01   1.00800           0
      3300 MEMB     30       SLPC     H18Y     HAL3     0.900000E-01   1.00800           0
      3301 MEMB     30       SLPC     H18Z     HAL3     0.900000E-01   1.00800           0
      3302 MEMB     31       OSM      N        NTL     -0.600000       14.0070           0
      3303 MEMB     31       OSM      C15      CTL5    -0.350000       12.0110           0
      3304 MEMB     31       OSM      H15A     HL       0.250000       1.00800           0
      3305 MEMB     31       OSM      H15B     HL       0.250000       1.00800           0
      3306 MEMB     31       OSM      H15C     HL       0.250000       1.00800           0
      3307 MEMB     31       OSM      C14      CTL5    -0.350000       12.0110           0
      3308 MEMB     31       OSM      H14A     HL       0.250000       1.00800           0
      3309 MEMB     31       OSM      H14B     HL       0.250000       1.00800           0
      3310 MEMB     31       OSM      H14C     HL       0.250000       1.00800           0
      3311 MEMB     31       OSM      C13      CTL5    -0.350000       12.0110           0
      3312 MEMB     31       OSM      H13A     HL       0.250000       1.00800           0
      3313 MEMB     31       OSM      H13B     HL       0.250000       1.00800           0
      3314 MEMB     31       OSM      H13C     HL       0.250000       1.00800           0
      3315 MEMB     31       OSM      C12      CTL2    -0.100000       12.0110           0
      3316 MEMB     31       OSM      H12A     HL       0.250000       1.00800           0
      3317 MEMB     31       OSM      H12B     HL       0.250000       1.00800           0
      3318 MEMB     31       OSM      C11      CTL2    -0.800000E-01   12.0110           0
      3319 MEMB     31       OSM      H11A     HAL2     0.900000E-01   1.00800           0
      3320 MEMB     31       OSM      H11B     HAL2     0.900000E-01   1.00800           0
      3321 MEMB     31       OSM      P        PL        1.50000       30.9740           0
      3322 MEMB     31       OSM      O13      O2L     -0.780000       15.9994           0
      3323 MEMB     31       OSM      O14      O2L     -0.780000       15.9994           0
      3324 MEMB     31       OSM      O11      OSLP    -0.570000       15.9994           0
      3325 MEMB     31       OSM      O12      OSLP    -0.570000       15.9994           0
      3326 MEMB     31       OSM      C1S      CTL2    -0.800000E-01   12.0110           0
      3327 MEMB     31       OSM      H1S      HAL2     0.900000E-01   1.00800           0
      3328 MEMB     31       OSM      H1T      HAL2     0.900000E-01   1.00800           0
      3329 MEMB     31       OSM      NF       NHL     -0.700000       14.0070           0
      3330 MEMB     31       OSM      HNF      H        0.350000       1.00800           0
      3331 MEMB     31       OSM      C2S      CTL1     0.300000       12.0110           0
      3332 MEMB     31       OSM      H2S      HAL1     0.500000E-01   1.00800           0
      3333 MEMB     31       OSM      C3S      CTO1     0.500000       12.0110           0
      3334 MEMB     31       OSM      H3S      HAL1    -0.110000       1.00800           0
      3335 MEMB     31       OSM      O3       OHL     -0.690000       15.9994           0
      3336 MEMB     31       OSM      HO3      HOL      0.300000       1.00800           0
      3337 MEMB     31       OSM      C4S      CEL3    -0.150000       12.0110           0
      3338 MEMB     31       OSM      H4S      HEL1     0.150000       1.00800           0
      3339 MEMB     31       OSM      C5S      CEL3    -0.150000       12.0110           0
      3340 MEMB     31       OSM      H5S      HEL1     0.150000       1.00800           0
      3341 MEMB     31       OSM      C6S      CTL2    -0.180000       12.0110           0
      3342 MEMB     31       OSM      H6S      HAL2     0.900000E-01   1.00800           0
      3343 MEMB     31       OSM      H6T      HAL2     0.900000E-01   1.00800           0
      3344 MEMB     31       OSM      C7S      CTL2    -0.180000       12.0110           0
      3345 MEMB     31       OSM      H7S      HAL2     0.900000E-01   1.00800           0
      3346 MEMB     31       OSM      H7T      HAL2     0.900000E-01   1.00800           0
      3347 MEMB     31       OSM      C8S      CTL2    -0.180000       12.0110           0
      3348 MEMB     31       OSM      H8S      HAL2     0.900000E-01   1.00800           0
      3349 MEMB     31       OSM      H8T      HAL2     0.900000E-01   1.00800           0
      3350 MEMB     31       OSM      C9S      CTL2    -0.180000       12.0110           0
      3351 MEMB     31       OSM      H9S      HAL2     0.900000E-01   1.00800           0
      3352 MEMB     31       OSM      H9T      HAL2     0.900000E-01   1.00800           0
      3353 MEMB     31       OSM      C10S     CTL2    -0.180000       12.0110           0
      3354 MEMB     31       OSM      H10S     HAL2     0.900000E-01   1.00800           0
      3355 MEMB     31       OSM      H10T     HAL2     0.900000E-01   1.00800           0
      3356 MEMB     31       OSM      C11S     CTL2    -0.180000       12.0110           0
      3357 MEMB     31       OSM      H11S     HAL2     0.900000E-01   1.00800           0
      3358 MEMB     31       OSM      H11T     HAL2     0.900000E-01   1.00800           0
      3359 MEMB     31       OSM      C12S     CTL2    -0.180000       12.0110           0
      3360 MEMB     31       OSM      H12S     HAL2     0.900000E-01   1.00800           0
      3361 MEMB     31       OSM      H12T     HAL2     0.900000E-01   1.00800           0
      3362 MEMB     31       OSM      C13S     CTL2    -0.180000       12.0110           0
      3363 MEMB     31       OSM      H13S     HAL2     0.900000E-01   1.00800           0
      3364 MEMB     31       OSM      H13T     HAL2     0.900000E-01   1.00800           0
      3365 MEMB     31       OSM      C14S     CTL2    -0.180000       12.0110           0
      3366 MEMB     31       OSM      H14S     HAL2     0.900000E-01   1.00800           0
      3367 MEMB     31       OSM      H14T     HAL2     0.900000E-01   1.00800           0
      3368 MEMB     31       OSM      C15S     CTL2    -0.180000       12.0110           0
      3369 MEMB     31       OSM      H15S     HAL2     0.900000E-01   1.00800           0
      3370 MEMB     31       OSM      H15T     HAL2     0.900000E-01   1.00800           0
      3371 MEMB     31       OSM      C16S     CTL2    -0.180000       12.0110           0
      3372 MEMB     31       OSM      H16S     HAL2     0.900000E-01   1.00800           0
      3373 MEMB     31       OSM      H16T     HAL2     0.900000E-01   1.00800           0
      3374 MEMB     31       OSM      C17S     CTL2    -0.180000       12.0110           0
      3375 MEMB     31       OSM      H17S     HAL2     0.900000E-01   1.00800           0
      3376 MEMB     31       OSM      H17T     HAL2     0.900000E-01   1.00800           0
      3377 MEMB     31       OSM      C18S     CTL3    -0.270000       12.0110           0
      3378 MEMB     31       OSM      H18S     HAL3     0.900000E-01   1.00800           0
      3379 MEMB     31       OSM      H18T     HAL3     0.900000E-01   1.00800           0
      3380 MEMB     31       OSM      H18U     HAL3     0.900000E-01   1.00800           0
      3381 MEMB     31       OSM      C1F      C        0.550000       12.0110           0
      3382 MEMB     31       OSM      OF       O       -0.600000       15.9994           0
      3383 MEMB     31       OSM      C2F      CTL2    -0.700000E-01   12.0110           0
      3384 MEMB     31       OSM      H2F      HAL2     0.600000E-01   1.00800           0
      3385 MEMB     31       OSM      H2G      HAL2     0.600000E-01   1.00800           0
      3386 MEMB     31       OSM      C3F      CTL2    -0.180000       12.0110           0
      3387 MEMB     31       OSM      H3F      HAL2     0.900000E-01   1.00800           0
      3388 MEMB     31       OSM      H3G      HAL2     0.900000E-01   1.00800           0
      3389 MEMB     31       OSM      C4F      CTL2    -0.180000       12.0110           0
      3390 MEMB     31       OSM      H4F      HAL2     0.900000E-01   1.00800           0
      3391 MEMB     31       OSM      H4G      HAL2     0.900000E-01   1.00800           0
      3392 MEMB     31       OSM      C5F      CTL2    -0.180000       12.0110           0
      3393 MEMB     31       OSM      H5F      HAL2     0.900000E-01   1.00800           0
      3394 MEMB     31       OSM      H5G      HAL2     0.900000E-01   1.00800           0
      3395 MEMB     31       OSM      C6F      CTL2    -0.180000       12.0110           0
      3396 MEMB     31       OSM      H6F      HAL2     0.900000E-01   1.00800           0
      3397 MEMB     31       OSM      H6G      HAL2     0.900000E-01   1.00800           0
      3398 MEMB     31       OSM      C7F      CTL2    -0.180000       12.0110           0
      3399 MEMB     31       OSM      H7F      HAL2     0.900000E-01   1.00800           0
      3400 MEMB     31       OSM      H7G      HAL2     0.900000E-01   1.00800           0
      3401 MEMB     31       OSM      C8F      CTL2    -0.180000       12.0110           0
      3402 MEMB     31       OSM      H8F      HAL2     0.900000E-01   1.00800           0
      3403 MEMB     31       OSM      H8G      HAL2     0.900000E-01   1.00800           0
      3404 MEMB     31       OSM      C9F      CEL1    -0.150000       12.0110           0
      3405 MEMB     31       OSM      H9F      HEL1     0.150000       1.00800           0
      3406 MEMB     31       OSM      C10F     CEL1    -0.150000       12.0110           0
      3407 MEMB     31       OSM      H10F     HEL1     0.150000       1.00800           0
      3408 MEMB     31       OSM      C11F     CTL2    -0.180000       12.0110           0
      3409 MEMB     31       OSM      H11F     HAL2     0.900000E-01   1.00800           0
      3410 MEMB     31       OSM      H11G     HAL2     0.900000E-01   1.00800           0
      3411 MEMB     31       OSM      C12F     CTL2    -0.180000       12.0110           0
      3412 MEMB     31       OSM      H12F     HAL2     0.900000E-01   1.00800           0
      3413 MEMB     31       OSM      H12G     HAL2     0.900000E-01   1.00800           0
      3414 MEMB     31       OSM      C13F     CTL2    -0.180000       12.0110           0
      3415 MEMB     31       OSM      H13F     HAL2     0.900000E-01   1.00800           0
      3416 MEMB     31       OSM      H13G     HAL2     0.900000E-01   1.00800           0
      3417 MEMB     31       OSM      C14F     CTL2    -0.180000       12.0110           0
      3418 MEMB     31       OSM      H14F     HAL2     0.900000E-01   1.00800           0
      3419 MEMB     31       OSM      H14G     HAL2     0.900000E-01   1.00800           0
      3420 MEMB     31       OSM      C15F     CTL2    -0.180000       12.0110           0
      3421 MEMB     31       OSM      H15F     HAL2     0.900000E-01   1.00800           0
      3422 MEMB     31       OSM      H15G     HAL2     0.900000E-01   1.00800           0
      3423 MEMB     31       OSM      C16F     CTL2    -0.180000       12.0110           0
      3424 MEMB     31       OSM      H16F     HAL2     0.900000E-01   1.00800           0
      3425 MEMB     31       OSM      H16G     HAL2     0.900000E-01   1.00800           0
      3426 MEMB     31       OSM      C17F     CTL2    -0.180000       12.0110           0
      3427 MEMB     31       OSM      H17F     HAL2     0.900000E-01   1.00800           0
      3428 MEMB     31       OSM      H17G     HAL2     0.900000E-01   1.00800           0
      3429 MEMB     31       OSM      C18F     CTL3    -0.270000       12.0110           0
      3430 MEMB     31       OSM      H18F     HAL3     0.900000E-01   1.00800           0
      3431 MEMB     31       OSM      H18G     HAL3     0.900000E-01   1.00800           0
      3432 MEMB     31       OSM      H18H     HAL3     0.900000E-01   1.00800           0
      3433 MEMB     32       SAPE     N        NH3L    -0.300000       14.0070           0
      3434 MEMB     32       SAPE     HN1      HCL      0.330000       1.00800           0
      3435 MEMB     32       SAPE     HN2      HCL      0.330000       1.00800           0
      3436 MEMB     32       SAPE     HN3      HCL      0.330000       1.00800           0
      3437 MEMB     32       SAPE     C12      CTL2     0.130000       12.0110           0
      3438 MEMB     32       SAPE     H12A     HAL2     0.900000E-01   1.00800           0
      3439 MEMB     32       SAPE     H12B     HAL2     0.900000E-01   1.00800           0
      3440 MEMB     32       SAPE     C11      CTL2    -0.800000E-01   12.0110           0
      3441 MEMB     32       SAPE     H11A     HAL2     0.900000E-01   1.00800           0
      3442 MEMB     32       SAPE     H11B     HAL2     0.900000E-01   1.00800           0
      3443 MEMB     32       SAPE     P        PL        1.50000       30.9740           0
      3444 MEMB     32       SAPE     O13      O2L     -0.780000       15.9994           0
      3445 MEMB     32       SAPE     O14      O2L     -0.780000       15.9994           0
      3446 MEMB     32       SAPE     O12      OSLP    -0.570000       15.9994           0
      3447 MEMB     32       SAPE     O11      OSLP    -0.570000       15.9994           0
      3448 MEMB     32       SAPE     C1       CTL2    -0.800000E-01   12.0110           0
      3449 MEMB     32       SAPE     HA       HAL2     0.900000E-01   1.00800           0
      3450 MEMB     32       SAPE     HB       HAL2     0.900000E-01   1.00800           0
      3451 MEMB     32       SAPE     C2       CTL1     0.170000       12.0110           0
      3452 MEMB     32       SAPE     HS       HAL1     0.900000E-01   1.00800           0
      3453 MEMB     32       SAPE     O21      OSL     -0.490000       15.9994           0
      3454 MEMB     32       SAPE     C21      CL       0.900000       12.0110           0
      3455 MEMB     32       SAPE     O22      OBL     -0.630000       15.9994           0
      3456 MEMB     32       SAPE     C22      CTL2    -0.220000       12.0110           0
      3457 MEMB     32       SAPE     H2R      HAL2     0.900000E-01   1.00800           0
      3458 MEMB     32       SAPE     H2S      HAL2     0.900000E-01   1.00800           0
      3459 MEMB     32       SAPE     C3       CTL2     0.800000E-01   12.0110           0
      3460 MEMB     32       SAPE     HX       HAL2     0.900000E-01   1.00800           0
      3461 MEMB     32       SAPE     HY       HAL2     0.900000E-01   1.00800           0
      3462 MEMB     32       SAPE     O31      OSL     -0.490000       15.9994           0
      3463 MEMB     32       SAPE     C31      CL       0.900000       12.0110           0
      3464 MEMB     32       SAPE     O32      OBL     -0.630000       15.9994           0
      3465 MEMB     32       SAPE     C32      CTL2    -0.220000       12.0110           0
      3466 MEMB     32       SAPE     H2X      HAL2     0.900000E-01   1.00800           0
      3467 MEMB     32       SAPE     H2Y      HAL2     0.900000E-01   1.00800           0
      3468 MEMB     32       SAPE     C23      CTL2    -0.180000       12.0110           0
      3469 MEMB     32       SAPE     H3R      HAL2     0.900000E-01   1.00800           0
      3470 MEMB     32       SAPE     H3S      HAL2     0.900000E-01   1.00800           0
      3471 MEMB     32       SAPE     C24      CTL2    -0.180000       12.0110           0
      3472 MEMB     32       SAPE     H4R      HAL2     0.900000E-01   1.00800           0
      3473 MEMB     32       SAPE     H4S      HAL2     0.900000E-01   1.00800           0
      3474 MEMB     32       SAPE     C25      CEL1    -0.150000       12.0110           0
      3475 MEMB     32       SAPE     H5R      HEL1     0.150000       1.00800           0
      3476 MEMB     32       SAPE     C26      CEL1    -0.150000       12.0110           0
      3477 MEMB     32       SAPE     H6R      HEL1     0.150000       1.00800           0
      3478 MEMB     32       SAPE     C27      CTL2    -0.180000       12.0110           0
      3479 MEMB     32       SAPE     H7R      HAL2     0.900000E-01   1.00800           0
      3480 MEMB     32       SAPE     H7S      HAL2     0.900000E-01   1.00800           0
      3481 MEMB     32       SAPE     C28      CEL1    -0.150000       12.0110           0
      3482 MEMB     32       SAPE     H8R      HEL1     0.150000       1.00800           0
      3483 MEMB     32       SAPE     C29      CEL1    -0.150000       12.0110           0
      3484 MEMB     32       SAPE     H9R      HEL1     0.150000       1.00800           0
      3485 MEMB     32       SAPE     C210     CTL2    -0.180000       12.0110           0
      3486 MEMB     32       SAPE     H10R     HAL2     0.900000E-01   1.00800           0
      3487 MEMB     32       SAPE     H10S     HAL2     0.900000E-01   1.00800           0
      3488 MEMB     32       SAPE     C211     CEL1    -0.150000       12.0110           0
      3489 MEMB     32       SAPE     H11R     HEL1     0.150000       1.00800           0
      3490 MEMB     32       SAPE     C212     CEL1    -0.150000       12.0110           0
      3491 MEMB     32       SAPE     H12R     HEL1     0.150000       1.00800           0
      3492 MEMB     32       SAPE     C213     CTL2    -0.180000       12.0110           0
      3493 MEMB     32       SAPE     H13R     HAL2     0.900000E-01   1.00800           0
      3494 MEMB     32       SAPE     H13S     HAL2     0.900000E-01   1.00800           0
      3495 MEMB     32       SAPE     C214     CEL1    -0.150000       12.0110           0
      3496 MEMB     32       SAPE     H14R     HEL1     0.150000       1.00800           0
      3497 MEMB     32       SAPE     C215     CEL1    -0.150000       12.0110           0
      3498 MEMB     32       SAPE     H15R     HEL1     0.150000       1.00800           0
      3499 MEMB     32       SAPE     C216     CTL2    -0.180000       12.0110           0
      3500 MEMB     32       SAPE     H16R     HAL2     0.900000E-01   1.00800           0
      3501 MEMB     32       SAPE     H16S     HAL2     0.900000E-01   1.00800           0
      3502 MEMB     32       SAPE     C217     CTL2    -0.180000       12.0110           0
      3503 MEMB     32       SAPE     H17R     HAL2     0.900000E-01   1.00800           0
      3504 MEMB     32       SAPE     H17S     HAL2     0.900000E-01   1.00800           0
      3505 MEMB     32       SAPE     C218     CTL2    -0.180000       12.0110           0
      3506 MEMB     32       SAPE     H18R     HAL2     0.900000E-01   1.00800           0
      3507 MEMB     32       SAPE     H18S     HAL2     0.900000E-01   1.00800           0
      3508 MEMB     32       SAPE     C219     CTL2    -0.180000       12.0110           0
      3509 MEMB     32       SAPE     H19R     HAL2     0.900000E-01   1.00800           0
      3510 MEMB     32       SAPE     H19S     HAL2     0.900000E-01   1.00800           0
      3511 MEMB     32       SAPE     C220     CTL3    -0.270000       12.0110           0
      3512 MEMB     32       SAPE     H20R     HAL3     0.900000E-01   1.00800           0
      3513 MEMB     32       SAPE     H20S     HAL3     0.900000E-01   1.00800           0
      3514 MEMB     32       SAPE     H20T     HAL3     0.900000E-01   1.00800           0
      3515 MEMB     32       SAPE     C33      CTL2    -0.180000       12.0110           0
      3516 MEMB     32       SAPE     H3X      HAL2     0.900000E-01   1.00800           0
      3517 MEMB     32       SAPE     H3Y      HAL2     0.900000E-01   1.00800           0
      3518 MEMB     32       SAPE     C34      CTL2    -0.180000       12.0110           0
      3519 MEMB     32       SAPE     H4X      HAL2     0.900000E-01   1.00800           0
      3520 MEMB     32       SAPE     H4Y      HAL2     0.900000E-01   1.00800           0
      3521 MEMB     32       SAPE     C35      CTL2    -0.180000       12.0110           0
      3522 MEMB     32       SAPE     H5X      HAL2     0.900000E-01   1.00800           0
      3523 MEMB     32       SAPE     H5Y      HAL2     0.900000E-01   1.00800           0
      3524 MEMB     32       SAPE     C36      CTL2    -0.180000       12.0110           0
      3525 MEMB     32       SAPE     H6X      HAL2     0.900000E-01   1.00800           0
      3526 MEMB     32       SAPE     H6Y      HAL2     0.900000E-01   1.00800           0
      3527 MEMB     32       SAPE     C37      CTL2    -0.180000       12.0110           0
      3528 MEMB     32       SAPE     H7X      HAL2     0.900000E-01   1.00800           0
      3529 MEMB     32       SAPE     H7Y      HAL2     0.900000E-01   1.00800           0
      3530 MEMB     32       SAPE     C38      CTL2    -0.180000       12.0110           0
      3531 MEMB     32       SAPE     H8X      HAL2     0.900000E-01   1.00800           0
      3532 MEMB     32       SAPE     H8Y      HAL2     0.900000E-01   1.00800           0
      3533 MEMB     32       SAPE     C39      CTL2    -0.180000       12.0110           0
      3534 MEMB     32       SAPE     H9X      HAL2     0.900000E-01   1.00800           0
      3535 MEMB     32       SAPE     H9Y      HAL2     0.900000E-01   1.00800           0
      3536 MEMB     32       SAPE     C310     CTL2    -0.180000       12.0110           0
      3537 MEMB     32       SAPE     H10X     HAL2     0.900000E-01   1.00800           0
      3538 MEMB     32       SAPE     H10Y     HAL2     0.900000E-01   1.00800           0
      3539 MEMB     32       SAPE     C311     CTL2    -0.180000       12.0110           0
      3540 MEMB     32       SAPE     H11X     HAL2     0.900000E-01   1.00800           0
      3541 MEMB     32       SAPE     H11Y     HAL2     0.900000E-01   1.00800           0
      3542 MEMB     32       SAPE     C312     CTL2    -0.180000       12.0110           0
      3543 MEMB     32       SAPE     H12X     HAL2     0.900000E-01   1.00800           0
      3544 MEMB     32       SAPE     H12Y     HAL2     0.900000E-01   1.00800           0
      3545 MEMB     32       SAPE     C313     CTL2    -0.180000       12.0110           0
      3546 MEMB     32       SAPE     H13X     HAL2     0.900000E-01   1.00800           0
      3547 MEMB     32       SAPE     H13Y     HAL2     0.900000E-01   1.00800           0
      3548 MEMB     32       SAPE     C314     CTL2    -0.180000       12.0110           0
      3549 MEMB     32       SAPE     H14X     HAL2     0.900000E-01   1.00800           0
      3550 MEMB     32       SAPE     H14Y     HAL2     0.900000E-01   1.00800           0
      3551 MEMB     32       SAPE     C315     CTL2    -0.180000       12.0110           0
      3552 MEMB     32       SAPE     H15X     HAL2     0.900000E-01   1.00800           0
      3553 MEMB     32       SAPE     H15Y     HAL2     0.900000E-01   1.00800           0
      3554 MEMB     32       SAPE     C316     CTL2    -0.180000       12.0110           0
      3555 MEMB     32       SAPE     H16X     HAL2     0.900000E-01   1.00800           0
      3556 MEMB     32       SAPE     H16Y     HAL2     0.900000E-01   1.00800           0
      3557 MEMB     32       SAPE     C317     CTL2    -0.180000       12.0110           0
      3558 MEMB     32       SAPE     H17X     HAL2     0.900000E-01   1.00800           0
      3559 MEMB     32       SAPE     H17Y     HAL2     0.900000E-01   1.00800           0
      3560 MEMB     32       SAPE     C318     CTL3    -0.270000       12.0110           0
      3561 MEMB     32       SAPE     H18X     HAL3     0.900000E-01   1.00800           0
      3562 MEMB     32       SAPE     H18Y     HAL3     0.900000E-01   1.00800           0
      3563 MEMB     32       SAPE     H18Z     HAL3     0.900000E-01   1.00800           0
      3564 MEMB     33       OSM      N        NTL     -0.600000       14.0070           0
      3565 MEMB     33       OSM      C15      CTL5    -0.350000       12.0110           0
      3566 MEMB     33       OSM      H15A     HL       0.250000       1.00800           0
      3567 MEMB     33       OSM      H15B     HL       0.250000       1.00800           0
      3568 MEMB     33       OSM      H15C     HL       0.250000       1.00800           0
      3569 MEMB     33       OSM      C14      CTL5    -0.350000       12.0110           0
      3570 MEMB     33       OSM      H14A     HL       0.250000       1.00800           0
      3571 MEMB     33       OSM      H14B     HL       0.250000       1.00800           0
      3572 MEMB     33       OSM      H14C     HL       0.250000       1.00800           0
      3573 MEMB     33       OSM      C13      CTL5    -0.350000       12.0110           0
      3574 MEMB     33       OSM      H13A     HL       0.250000       1.00800           0
      3575 MEMB     33       OSM      H13B     HL       0.250000       1.00800           0
      3576 MEMB     33       OSM      H13C     HL       0.250000       1.00800           0
      3577 MEMB     33       OSM      C12      CTL2    -0.100000       12.0110           0
      3578 MEMB     33       OSM      H12A     HL       0.250000       1.00800           0
      3579 MEMB     33       OSM      H12B     HL       0.250000       1.00800           0
      3580 MEMB     33       OSM      C11      CTL2    -0.800000E-01   12.0110           0
      3581 MEMB     33       OSM      H11A     HAL2     0.900000E-01   1.00800           0
      3582 MEMB     33       OSM      H11B     HAL2     0.900000E-01   1.00800           0
      3583 MEMB     33       OSM      P        PL        1.50000       30.9740           0
      3584 MEMB     33       OSM      O13      O2L     -0.780000       15.9994           0
      3585 MEMB     33       OSM      O14      O2L     -0.780000       15.9994           0
      3586 MEMB     33       OSM      O11      OSLP    -0.570000       15.9994           0
      3587 MEMB     33       OSM      O12      OSLP    -0.570000       15.9994           0
      3588 MEMB     33       OSM      C1S      CTL2    -0.800000E-01   12.0110           0
      3589 MEMB     33       OSM      H1S      HAL2     0.900000E-01   1.00800           0
      3590 MEMB     33       OSM      H1T      HAL2     0.900000E-01   1.00800           0
      3591 MEMB     33       OSM      NF       NHL     -0.700000       14.0070           0
      3592 MEMB     33       OSM      HNF      H        0.350000       1.00800           0
      3593 MEMB     33       OSM      C2S      CTL1     0.300000       12.0110           0
      3594 MEMB     33       OSM      H2S      HAL1     0.500000E-01   1.00800           0
      3595 MEMB     33       OSM      C3S      CTO1     0.500000       12.0110           0
      3596 MEMB     33       OSM      H3S      HAL1    -0.110000       1.00800           0
      3597 MEMB     33       OSM      O3       OHL     -0.690000       15.9994           0
      3598 MEMB     33       OSM      HO3      HOL      0.300000       1.00800           0
      3599 MEMB     33       OSM      C4S      CEL3    -0.150000       12.0110           0
      3600 MEMB     33       OSM      H4S      HEL1     0.150000       1.00800           0
      3601 MEMB     33       OSM      C5S      CEL3    -0.150000       12.0110           0
      3602 MEMB     33       OSM      H5S      HEL1     0.150000       1.00800           0
      3603 MEMB     33       OSM      C6S      CTL2    -0.180000       12.0110           0
      3604 MEMB     33       OSM      H6S      HAL2     0.900000E-01   1.00800           0
      3605 MEMB     33       OSM      H6T      HAL2     0.900000E-01   1.00800           0
      3606 MEMB     33       OSM      C7S      CTL2    -0.180000       12.0110           0
      3607 MEMB     33       OSM      H7S      HAL2     0.900000E-01   1.00800           0
      3608 MEMB     33       OSM      H7T      HAL2     0.900000E-01   1.00800           0
      3609 MEMB     33       OSM      C8S      CTL2    -0.180000       12.0110           0
      3610 MEMB     33       OSM      H8S      HAL2     0.900000E-01   1.00800           0
      3611 MEMB     33       OSM      H8T      HAL2     0.900000E-01   1.00800           0
      3612 MEMB     33       OSM      C9S      CTL2    -0.180000       12.0110           0
      3613 MEMB     33       OSM      H9S      HAL2     0.900000E-01   1.00800           0
      3614 MEMB     33       OSM      H9T      HAL2     0.900000E-01   1.00800           0
      3615 MEMB     33       OSM      C10S     CTL2    -0.180000       12.0110           0
      3616 MEMB     33       OSM      H10S     HAL2     0.900000E-01   1.00800           0
      3617 MEMB     33       OSM      H10T     HAL2     0.900000E-01   1.00800           0
      3618 MEMB     33       OSM      C11S     CTL2    -0.180000       12.0110           0
      3619 MEMB     33       OSM      H11S     HAL2     0.900000E-01   1.00800           0
      3620 MEMB     33       OSM      H11T     HAL2     0.900000E-01   1.00800           0
      3621 MEMB     33       OSM      C12S     CTL2    -0.180000       12.0110           0
      3622 MEMB     33       OSM      H12S     HAL2     0.900000E-01   1.00800           0
      3623 MEMB     33       OSM      H12T     HAL2     0.900000E-01   1.00800           0
      3624 MEMB     33       OSM      C13S     CTL2    -0.180000       12.0110           0
      3625 MEMB     33       OSM      H13S     HAL2     0.900000E-01   1.00800           0
      3626 MEMB     33       OSM      H13T     HAL2     0.900000E-01   1.00800           0
      3627 MEMB     33       OSM      C14S     CTL2    -0.180000       12.0110           0
      3628 MEMB     33       OSM      H14S     HAL2     0.900000E-01   1.00800           0
      3629 MEMB     33       OSM      H14T     HAL2     0.900000E-01   1.00800           0
      3630 MEMB     33       OSM      C15S     CTL2    -0.180000       12.0110           0
      3631 MEMB     33       OSM      H15S     HAL2     0.900000E-01   1.00800           0
      3632 MEMB     33       OSM      H15T     HAL2     0.900000E-01   1.00800           0
      3633 MEMB     33       OSM      C16S     CTL2    -0.180000       12.0110           0
      3634 MEMB     33       OSM      H16S     HAL2     0.900000E-01   1.00800           0
      3635 MEMB     33       OSM      H16T     HAL2     0.900000E-01   1.00800           0
      3636 MEMB     33       OSM      C17S     CTL2    -0.180000       12.0110           0
      3637 MEMB     33       OSM      H17S     HAL2     0.900000E-01   1.00800           0
      3638 MEMB     33       OSM      H17T     HAL2     0.900000E-01   1.00800           0
      3639 MEMB     33       OSM      C18S     CTL3    -0.270000       12.0110           0
      3640 MEMB     33       OSM      H18S     HAL3     0.900000E-01   1.00800           0
      3641 MEMB     33       OSM      H18T     HAL3     0.900000E-01   1.00800           0
      3642 MEMB     33       OSM      H18U     HAL3     0.900000E-01   1.00800           0
      3643 MEMB     33       OSM      C1F      C        0.550000       12.0110           0
      3644 MEMB     33       OSM      OF       O       -0.600000       15.9994           0
      3645 MEMB     33       OSM      C2F      CTL2    -0.700000E-01   12.0110           0
      3646 MEMB     33       OSM      H2F      HAL2     0.600000E-01   1.00800           0
      3647 MEMB     33       OSM      H2G      HAL2     0.600000E-01   1.00800           0
      3648 MEMB     33       OSM      C3F      CTL2    -0.180000       12.0110           0
      3649 MEMB     33       OSM      H3F      HAL2     0.900000E-01   1.00800           0
      3650 MEMB     33       OSM      H3G      HAL2     0.900000E-01   1.00800           0
      3651 MEMB     33       OSM      C4F      CTL2    -0.180000       12.0110           0
      3652 MEMB     33       OSM      H4F      HAL2     0.900000E-01   1.00800           0
      3653 MEMB     33       OSM      H4G      HAL2     0.900000E-01   1.00800           0
      3654 MEMB     33       OSM      C5F      CTL2    -0.180000       12.0110           0
      3655 MEMB     33       OSM      H5F      HAL2     0.900000E-01   1.00800           0
      3656 MEMB     33       OSM      H5G      HAL2     0.900000E-01   1.00800           0
      3657 MEMB     33       OSM      C6F      CTL2    -0.180000       12.0110           0
      3658 MEMB     33       OSM      H6F      HAL2     0.900000E-01   1.00800           0
      3659 MEMB     33       OSM      H6G      HAL2     0.900000E-01   1.00800           0
      3660 MEMB     33       OSM      C7F      CTL2    -0.180000       12.0110           0
      3661 MEMB     33       OSM      H7F      HAL2     0.900000E-01   1.00800           0
      3662 MEMB     33       OSM      H7G      HAL2     0.900000E-01   1.00800           0
      3663 MEMB     33       OSM      C8F      CTL2    -0.180000       12.0110           0
      3664 MEMB     33       OSM      H8F      HAL2     0.900000E-01   1.00800           0
      3665 MEMB     33       OSM      H8G      HAL2     0.900000E-01   1.00800           0
      3666 MEMB     33       OSM      C9F      CEL1    -0.150000       12.0110           0
      3667 MEMB     33       OSM      H9F      HEL1     0.150000       1.00800           0
      3668 MEMB     33       OSM      C10F     CEL1    -0.150000       12.0110           0
      3669 MEMB     33       OSM      H10F     HEL1     0.150000       1.00800           0
      3670 MEMB     33       OSM      C11F     CTL2    -0.180000       12.0110           0
      3671 MEMB     33       OSM      H11F     HAL2     0.900000E-01   1.00800           0
      3672 MEMB     33       OSM      H11G     HAL2     0.900000E-01   1.00800           0
      3673 MEMB     33       OSM      C12F     CTL2    -0.180000       12.0110           0
      3674 MEMB     33       OSM      H12F     HAL2     0.900000E-01   1.00800           0
      3675 MEMB     33       OSM      H12G     HAL2     0.900000E-01   1.00800           0
      3676 MEMB     33       OSM      C13F     CTL2    -0.180000       12.0110           0
      3677 MEMB     33       OSM      H13F     HAL2     0.900000E-01   1.00800           0
      3678 MEMB     33       OSM      H13G     HAL2     0.900000E-01   1.00800           0
      3679 MEMB     33       OSM      C14F     CTL2    -0.180000       12.0110           0
      3680 MEMB     33       OSM      H14F     HAL2     0.900000E-01   1.00800           0
      3681 MEMB     33       OSM      H14G     HAL2     0.900000E-01   1.00800           0
      3682 MEMB     33       OSM      C15F     CTL2    -0.180000       12.0110           0
      3683 MEMB     33       OSM      H15F     HAL2     0.900000E-01   1.00800           0
      3684 MEMB     33       OSM      H15G     HAL2     0.900000E-01   1.00800           0
      3685 MEMB     33       OSM      C16F     CTL2    -0.180000       12.0110           0
      3686 MEMB     33       OSM      H16F     HAL2     0.900000E-01   1.00800           0
      3687 MEMB     33       OSM      H16G     HAL2     0.900000E-01   1.00800           0
      3688 MEMB     33       OSM      C17F     CTL2    -0.180000       12.0110           0
      3689 MEMB     33       OSM      H17F     HAL2     0.900000E-01   1.00800           0
      3690 MEMB     33       OSM      H17G     HAL2     0.900000E-01   1.00800           0
      3691 MEMB     33       OSM      C18F     CTL3    -0.270000       12.0110           0
      3692 MEMB     33       OSM      H18F     HAL3     0.900000E-01   1.00800           0
      3693 MEMB     33       OSM      H18G     HAL3     0.900000E-01   1.00800           0
      3694 MEMB     33       OSM      H18H     HAL3     0.900000E-01   1.00800           0
      3695 MEMB     34       OSM      N        NTL     -0.600000       14.0070           0
      3696 MEMB     34       OSM      C15      CTL5    -0.350000       12.0110           0
      3697 MEMB     34       OSM      H15A     HL       0.250000       1.00800           0
      3698 MEMB     34       OSM      H15B     HL       0.250000       1.00800           0
      3699 MEMB     34       OSM      H15C     HL       0.250000       1.00800           0
      3700 MEMB     34       OSM      C14      CTL5    -0.350000       12.0110           0
      3701 MEMB     34       OSM      H14A     HL       0.250000       1.00800           0
      3702 MEMB     34       OSM      H14B     HL       0.250000       1.00800           0
      3703 MEMB     34       OSM      H14C     HL       0.250000       1.00800           0
      3704 MEMB     34       OSM      C13      CTL5    -0.350000       12.0110           0
      3705 MEMB     34       OSM      H13A     HL       0.250000       1.00800           0
      3706 MEMB     34       OSM      H13B     HL       0.250000       1.00800           0
      3707 MEMB     34       OSM      H13C     HL       0.250000       1.00800           0
      3708 MEMB     34       OSM      C12      CTL2    -0.100000       12.0110           0
      3709 MEMB     34       OSM      H12A     HL       0.250000       1.00800           0
      3710 MEMB     34       OSM      H12B     HL       0.250000       1.00800           0
      3711 MEMB     34       OSM      C11      CTL2    -0.800000E-01   12.0110           0
      3712 MEMB     34       OSM      H11A     HAL2     0.900000E-01   1.00800           0
      3713 MEMB     34       OSM      H11B     HAL2     0.900000E-01   1.00800           0
      3714 MEMB     34       OSM      P        PL        1.50000       30.9740           0
      3715 MEMB     34       OSM      O13      O2L     -0.780000       15.9994           0
      3716 MEMB     34       OSM      O14      O2L     -0.780000       15.9994           0
      3717 MEMB     34       OSM      O11      OSLP    -0.570000       15.9994           0
      3718 MEMB     34       OSM      O12      OSLP    -0.570000       15.9994           0
      3719 MEMB     34       OSM      C1S      CTL2    -0.800000E-01   12.0110           0
      3720 MEMB     34       OSM      H1S      HAL2     0.900000E-01   1.00800           0
      3721 MEMB     34       OSM      H1T      HAL2     0.900000E-01   1.00800           0
      3722 MEMB     34       OSM      NF       NHL     -0.700000       14.0070           0
      3723 MEMB     34       OSM      HNF      H        0.350000       1.00800           0
      3724 MEMB     34       OSM      C2S      CTL1     0.300000       12.0110           0
      3725 MEMB     34       OSM      H2S      HAL1     0.500000E-01   1.00800           0
      3726 MEMB     34       OSM      C3S      CTO1     0.500000       12.0110           0
      3727 MEMB     34       OSM      H3S      HAL1    -0.110000       1.00800           0
      3728 MEMB     34       OSM      O3       OHL     -0.690000       15.9994           0
      3729 MEMB     34       OSM      HO3      HOL      0.300000       1.00800           0
      3730 MEMB     34       OSM      C4S      CEL3    -0.150000       12.0110           0
      3731 MEMB     34       OSM      H4S      HEL1     0.150000       1.00800           0
      3732 MEMB     34       OSM      C5S      CEL3    -0.150000       12.0110           0
      3733 MEMB     34       OSM      H5S      HEL1     0.150000       1.00800           0
      3734 MEMB     34       OSM      C6S      CTL2    -0.180000       12.0110           0
      3735 MEMB     34       OSM      H6S      HAL2     0.900000E-01   1.00800           0
      3736 MEMB     34       OSM      H6T      HAL2     0.900000E-01   1.00800           0
      3737 MEMB     34       OSM      C7S      CTL2    -0.180000       12.0110           0
      3738 MEMB     34       OSM      H7S      HAL2     0.900000E-01   1.00800           0
      3739 MEMB     34       OSM      H7T      HAL2     0.900000E-01   1.00800           0
      3740 MEMB     34       OSM      C8S      CTL2    -0.180000       12.0110           0
      3741 MEMB     34       OSM      H8S      HAL2     0.900000E-01   1.00800           0
      3742 MEMB     34       OSM      H8T      HAL2     0.900000E-01   1.00800           0
      3743 MEMB     34       OSM      C9S      CTL2    -0.180000       12.0110           0
      3744 MEMB     34       OSM      H9S      HAL2     0.900000E-01   1.00800           0
      3745 MEMB     34       OSM      H9T      HAL2     0.900000E-01   1.00800           0
      3746 MEMB     34       OSM      C10S     CTL2    -0.180000       12.0110           0
      3747 MEMB     34       OSM      H10S     HAL2     0.900000E-01   1.00800           0
      3748 MEMB     34       OSM      H10T     HAL2     0.900000E-01   1.00800           0
      3749 MEMB     34       OSM      C11S     CTL2    -0.180000       12.0110           0
      3750 MEMB     34       OSM      H11S     HAL2     0.900000E-01   1.00800           0
      3751 MEMB     34       OSM      H11T     HAL2     0.900000E-01   1.00800           0
      3752 MEMB     34       OSM      C12S     CTL2    -0.180000       12.0110           0
      3753 MEMB     34       OSM      H12S     HAL2     0.900000E-01   1.00800           0
      3754 MEMB     34       OSM      H12T     HAL2     0.900000E-01   1.00800           0
      3755 MEMB     34       OSM      C13S     CTL2    -0.180000       12.0110           0
      3756 MEMB     34       OSM      H13S     HAL2     0.900000E-01   1.00800           0
      3757 MEMB     34       OSM      H13T     HAL2     0.900000E-01   1.00800           0
      3758 MEMB     34       OSM      C14S     CTL2    -0.180000       12.0110           0
      3759 MEMB     34       OSM      H14S     HAL2     0.900000E-01   1.00800           0
      3760 MEMB     34       OSM      H14T     HAL2     0.900000E-01   1.00800           0
      3761 MEMB     34       OSM      C15S     CTL2    -0.180000       12.0110           0
      3762 MEMB     34       OSM      H15S     HAL2     0.900000E-01   1.00800           0
      3763 MEMB     34       OSM      H15T     HAL2     0.900000E-01   1.00800           0
      3764 MEMB     34       OSM      C16S     CTL2    -0.180000       12.0110           0
      3765 MEMB     34       OSM      H16S     HAL2     0.900000E-01   1.00800           0
      3766 MEMB     34       OSM      H16T     HAL2     0.900000E-01   1.00800           0
      3767 MEMB     34       OSM      C17S     CTL2    -0.180000       12.0110           0
      3768 MEMB     34       OSM      H17S     HAL2     0.900000E-01   1.00800           0
      3769 MEMB     34       OSM      H17T     HAL2     0.900000E-01   1.00800           0
      3770 MEMB     34       OSM      C18S     CTL3    -0.270000       12.0110           0
      3771 MEMB     34       OSM      H18S     HAL3     0.900000E-01   1.00800           0
      3772 MEMB     34       OSM      H18T     HAL3     0.900000E-01   1.00800           0
      3773 MEMB     34       OSM      H18U     HAL3     0.900000E-01   1.00800           0
      3774 MEMB     34       OSM      C1F      C        0.550000       12.0110           0
      3775 MEMB     34       OSM      OF       O       -0.600000       15.9994           0
      3776 MEMB     34       OSM      C2F      CTL2    -0.700000E-01   12.0110           0
      3777 MEMB     34       OSM      H2F      HAL2     0.600000E-01   1.00800           0
      3778 MEMB     34       OSM      H2G      HAL2     0.600000E-01   1.00800           0
      3779 MEMB     34       OSM      C3F      CTL2    -0.180000       12.0110           0
      3780 MEMB     34       OSM      H3F      HAL2     0.900000E-01   1.00800           0
      3781 MEMB     34       OSM      H3G      HAL2     0.900000E-01   1.00800           0
      3782 MEMB     34       OSM      C4F      CTL2    -0.180000       12.0110           0
      3783 MEMB     34       OSM      H4F      HAL2     0.900000E-01   1.00800           0
      3784 MEMB     34       OSM      H4G      HAL2     0.900000E-01   1.00800           0
      3785 MEMB     34       OSM      C5F      CTL2    -0.180000       12.0110           0
      3786 MEMB     34       OSM      H5F      HAL2     0.900000E-01   1.00800           0
      3787 MEMB     34       OSM      H5G      HAL2     0.900000E-01   1.00800           0
      3788 MEMB     34       OSM      C6F      CTL2    -0.180000       12.0110           0
      3789 MEMB     34       OSM      H6F      HAL2     0.900000E-01   1.00800           0
      3790 MEMB     34       OSM      H6G      HAL2     0.900000E-01   1.00800           0
      3791 MEMB     34       OSM      C7F      CTL2    -0.180000       12.0110           0
      3792 MEMB     34       OSM      H7F      HAL2     0.900000E-01   1.00800           0
      3793 MEMB     34       OSM      H7G      HAL2     0.900000E-01   1.00800           0
      3794 MEMB     34       OSM      C8F      CTL2    -0.180000       12.0110           0
      3795 MEMB     34       OSM      H8F      HAL2     0.900000E-01   1.00800           0
      3796 MEMB     34       OSM      H8G      HAL2     0.900000E-01   1.00800           0
      3797 MEMB     34       OSM      C9F      CEL1    -0.150000       12.0110           0
      3798 MEMB     34       OSM      H9F      HEL1     0.150000       1.00800           0
      3799 MEMB     34       OSM      C10F     CEL1    -0.150000       12.0110           0
      3800 MEMB     34       OSM      H10F     HEL1     0.150000       1.00800           0
      3801 MEMB     34       OSM      C11F     CTL2    -0.180000       12.0110           0
      3802 MEMB     34       OSM      H11F     HAL2     0.900000E-01   1.00800           0
      3803 MEMB     34       OSM      H11G     HAL2     0.900000E-01   1.00800           0
      3804 MEMB     34       OSM      C12F     CTL2    -0.180000       12.0110           0
      3805 MEMB     34       OSM      H12F     HAL2     0.900000E-01   1.00800           0
      3806 MEMB     34       OSM      H12G     HAL2     0.900000E-01   1.00800           0
      3807 MEMB     34       OSM      C13F     CTL2    -0.180000       12.0110           0
      3808 MEMB     34       OSM      H13F     HAL2     0.900000E-01   1.00800           0
      3809 MEMB     34       OSM      H13G     HAL2     0.900000E-01   1.00800           0
      3810 MEMB     34       OSM      C14F     CTL2    -0.180000       12.0110           0
      3811 MEMB     34       OSM      H14F     HAL2     0.900000E-01   1.00800           0
      3812 MEMB     34       OSM      H14G     HAL2     0.900000E-01   1.00800           0
      3813 MEMB     34       OSM      C15F     CTL2    -0.180000       12.0110           0
      3814 MEMB     34       OSM      H15F     HAL2     0.900000E-01   1.00800           0
      3815 MEMB     34       OSM      H15G     HAL2     0.900000E-01   1.00800           0
      3816 MEMB     34       OSM      C16F     CTL2    -0.180000       12.0110           0
      3817 MEMB     34       OSM      H16F     HAL2     0.900000E-01   1.00800           0
      3818 MEMB     34       OSM      H16G     HAL2     0.900000E-01   1.00800           0
      3819 MEMB     34       OSM      C17F     CTL2    -0.180000       12.0110           0
      3820 MEMB     34       OSM      H17F     HAL2     0.900000E-01   1.00800           0
      3821 MEMB     34       OSM      H17G     HAL2     0.900000E-01   1.00800           0
      3822 MEMB     34       OSM      C18F     CTL3    -0.270000       12.0110           0
      3823 MEMB     34       OSM      H18F     HAL3     0.900000E-01   1.00800           0
      3824 MEMB     34       OSM      H18G     HAL3     0.900000E-01   1.00800           0
      3825 MEMB     34       OSM      H18H     HAL3     0.900000E-01   1.00800           0
      3826 MEMB     35       OSM      N        NTL     -0.600000       14.0070           0
      3827 MEMB     35       OSM      C15      CTL5    -0.350000       12.0110           0
      3828 MEMB     35       OSM      H15A     HL       0.250000       1.00800           0
      3829 MEMB     35       OSM      H15B     HL       0.250000       1.00800           0
      3830 MEMB     35       OSM      H15C     HL       0.250000       1.00800           0
      3831 MEMB     35       OSM      C14      CTL5    -0.350000       12.0110           0
      3832 MEMB     35       OSM      H14A     HL       0.250000       1.00800           0
      3833 MEMB     35       OSM      H14B     HL       0.250000       1.00800           0
      3834 MEMB     35       OSM      H14C     HL       0.250000       1.00800           0
      3835 MEMB     35       OSM      C13      CTL5    -0.350000       12.0110           0
      3836 MEMB     35       OSM      H13A     HL       0.250000       1.00800           0
      3837 MEMB     35       OSM      H13B     HL       0.250000       1.00800           0
      3838 MEMB     35       OSM      H13C     HL       0.250000       1.00800           0
      3839 MEMB     35       OSM      C12      CTL2    -0.100000       12.0110           0
      3840 MEMB     35       OSM      H12A     HL       0.250000       1.00800           0
      3841 MEMB     35       OSM      H12B     HL       0.250000       1.00800           0
      3842 MEMB     35       OSM      C11      CTL2    -0.800000E-01   12.0110           0
      3843 MEMB     35       OSM      H11A     HAL2     0.900000E-01   1.00800           0
      3844 MEMB     35       OSM      H11B     HAL2     0.900000E-01   1.00800           0
      3845 MEMB     35       OSM      P        PL        1.50000       30.9740           0
      3846 MEMB     35       OSM      O13      O2L     -0.780000       15.9994           0
      3847 MEMB     35       OSM      O14      O2L     -0.780000       15.9994           0
      3848 MEMB     35       OSM      O11      OSLP    -0.570000       15.9994           0
      3849 MEMB     35       OSM      O12      OSLP    -0.570000       15.9994           0
      3850 MEMB     35       OSM      C1S      CTL2    -0.800000E-01   12.0110           0
      3851 MEMB     35       OSM      H1S      HAL2     0.900000E-01   1.00800           0
      3852 MEMB     35       OSM      H1T      HAL2     0.900000E-01   1.00800           0
      3853 MEMB     35       OSM      NF       NHL     -0.700000       14.0070           0
      3854 MEMB     35       OSM      HNF      H        0.350000       1.00800           0
      3855 MEMB     35       OSM      C2S      CTL1     0.300000       12.0110           0
      3856 MEMB     35       OSM      H2S      HAL1     0.500000E-01   1.00800           0
      3857 MEMB     35       OSM      C3S      CTO1     0.500000       12.0110           0
      3858 MEMB     35       OSM      H3S      HAL1    -0.110000       1.00800           0
      3859 MEMB     35       OSM      O3       OHL     -0.690000       15.9994           0
      3860 MEMB     35       OSM      HO3      HOL      0.300000       1.00800           0
      3861 MEMB     35       OSM      C4S      CEL3    -0.150000       12.0110           0
      3862 MEMB     35       OSM      H4S      HEL1     0.150000       1.00800           0
      3863 MEMB     35       OSM      C5S      CEL3    -0.150000       12.0110           0
      3864 MEMB     35       OSM      H5S      HEL1     0.150000       1.00800           0
      3865 MEMB     35       OSM      C6S      CTL2    -0.180000       12.0110           0
      3866 MEMB     35       OSM      H6S      HAL2     0.900000E-01   1.00800           0
      3867 MEMB     35       OSM      H6T      HAL2     0.900000E-01   1.00800           0
      3868 MEMB     35       OSM      C7S      CTL2    -0.180000       12.0110           0
      3869 MEMB     35       OSM      H7S      HAL2     0.900000E-01   1.00800           0
      3870 MEMB     35       OSM      H7T      HAL2     0.900000E-01   1.00800           0
      3871 MEMB     35       OSM      C8S      CTL2    -0.180000       12.0110           0
      3872 MEMB     35       OSM      H8S      HAL2     0.900000E-01   1.00800           0
      3873 MEMB     35       OSM      H8T      HAL2     0.900000E-01   1.00800           0
      3874 MEMB     35       OSM      C9S      CTL2    -0.180000       12.0110           0
      3875 MEMB     35       OSM      H9S      HAL2     0.900000E-01   1.00800           0
      3876 MEMB     35       OSM      H9T      HAL2     0.900000E-01   1.00800           0
      3877 MEMB     35       OSM      C10S     CTL2    -0.180000       12.0110           0
      3878 MEMB     35       OSM      H10S     HAL2     0.900000E-01   1.00800           0
      3879 MEMB     35       OSM      H10T     HAL2     0.900000E-01   1.00800           0
      3880 MEMB     35       OSM      C11S     CTL2    -0.180000       12.0110           0
      3881 MEMB     35       OSM      H11S     HAL2     0.900000E-01   1.00800           0
      3882 MEMB     35       OSM      H11T     HAL2     0.900000E-01   1.00800           0
      3883 MEMB     35       OSM      C12S     CTL2    -0.180000       12.0110           0
      3884 MEMB     35       OSM      H12S     HAL2     0.900000E-01   1.00800           0
      3885 MEMB     35       OSM      H12T     HAL2     0.900000E-01   1.00800           0
      3886 MEMB     35       OSM      C13S     CTL2    -0.180000       12.0110           0
      3887 MEMB     35       OSM      H13S     HAL2     0.900000E-01   1.00800           0
      3888 MEMB     35       OSM      H13T     HAL2     0.900000E-01   1.00800           0
      3889 MEMB     35       OSM      C14S     CTL2    -0.180000       12.0110           0
      3890 MEMB     35       OSM      H14S     HAL2     0.900000E-01   1.00800           0
      3891 MEMB     35       OSM      H14T     HAL2     0.900000E-01   1.00800           0
      3892 MEMB     35       OSM      C15S     CTL2    -0.180000       12.0110           0
      3893 MEMB     35       OSM      H15S     HAL2     0.900000E-01   1.00800           0
      3894 MEMB     35       OSM      H15T     HAL2     0.900000E-01   1.00800           0
      3895 MEMB     35       OSM      C16S     CTL2    -0.180000       12.0110           0
      3896 MEMB     35       OSM      H16S     HAL2     0.900000E-01   1.00800           0
      3897 MEMB     35       OSM      H16T     HAL2     0.900000E-01   1.00800           0
      3898 MEMB     35       OSM      C17S     CTL2    -0.180000       12.0110           0
      3899 MEMB     35       OSM      H17S     HAL2     0.900000E-01   1.00800           0
      3900 MEMB     35       OSM      H17T     HAL2     0.900000E-01   1.00800           0
      3901 MEMB     35       OSM      C18S     CTL3    -0.270000       12.0110           0
      3902 MEMB     35       OSM      H18S     HAL3     0.900000E-01   1.00800           0
      3903 MEMB     35       OSM      H18T     HAL3     0.900000E-01   1.00800           0
      3904 MEMB     35       OSM      H18U     HAL3     0.900000E-01   1.00800           0
      3905 MEMB     35       OSM      C1F      C        0.550000       12.0110           0
      3906 MEMB     35       OSM      OF       O       -0.600000       15.9994           0
      3907 MEMB     35       OSM      C2F      CTL2    -0.700000E-01   12.0110           0
      3908 MEMB     35       OSM      H2F      HAL2     0.600000E-01   1.00800           0
      3909 MEMB     35       OSM      H2G      HAL2     0.600000E-01   1.00800           0
      3910 MEMB     35       OSM      C3F      CTL2    -0.180000       12.0110           0
      3911 MEMB     35       OSM      H3F      HAL2     0.900000E-01   1.00800           0
      3912 MEMB     35       OSM      H3G      HAL2     0.900000E-01   1.00800           0
      3913 MEMB     35       OSM      C4F      CTL2    -0.180000       12.0110           0
      3914 MEMB     35       OSM      H4F      HAL2     0.900000E-01   1.00800           0
      3915 MEMB     35       OSM      H4G      HAL2     0.900000E-01   1.00800           0
      3916 MEMB     35       OSM      C5F      CTL2    -0.180000       12.0110           0
      3917 MEMB     35       OSM      H5F      HAL2     0.900000E-01   1.00800           0
      3918 MEMB     35       OSM      H5G      HAL2     0.900000E-01   1.00800           0
      3919 MEMB     35       OSM      C6F      CTL2    -0.180000       12.0110           0
      3920 MEMB     35       OSM      H6F      HAL2     0.900000E-01   1.00800           0
      3921 MEMB     35       OSM      H6G      HAL2     0.900000E-01   1.00800           0
      3922 MEMB     35       OSM      C7F      CTL2    -0.180000       12.0110           0
      3923 MEMB     35       OSM      H7F      HAL2     0.900000E-01   1.00800           0
      3924 MEMB     35       OSM      H7G      HAL2     0.900000E-01   1.00800           0
      3925 MEMB     35       OSM      C8F      CTL2    -0.180000       12.0110           0
      3926 MEMB     35       OSM      H8F      HAL2     0.900000E-01   1.00800           0
      3927 MEMB     35       OSM      H8G      HAL2     0.900000E-01   1.00800           0
      3928 MEMB     35       OSM      C9F      CEL1    -0.150000       12.0110           0
      3929 MEMB     35       OSM      H9F      HEL1     0.150000       1.00800           0
      3930 MEMB     35       OSM      C10F     CEL1    -0.150000       12.0110           0
      3931 MEMB     35       OSM      H10F     HEL1     0.150000       1.00800           0
      3932 MEMB     35       OSM      C11F     CTL2    -0.180000       12.0110           0
      3933 MEMB     35       OSM      H11F     HAL2     0.900000E-01   1.00800           0
      3934 MEMB     35       OSM      H11G     HAL2     0.900000E-01   1.00800           0
      3935 MEMB     35       OSM      C12F     CTL2    -0.180000       12.0110           0
      3936 MEMB     35       OSM      H12F     HAL2     0.900000E-01   1.00800           0
      3937 MEMB     35       OSM      H12G     HAL2     0.900000E-01   1.00800           0
      3938 MEMB     35       OSM      C13F     CTL2    -0.180000       12.0110           0
      3939 MEMB     35       OSM      H13F     HAL2     0.900000E-01   1.00800           0
      3940 MEMB     35       OSM      H13G     HAL2     0.900000E-01   1.00800           0
      3941 MEMB     35       OSM      C14F     CTL2    -0.180000       12.0110           0
      3942 MEMB     35       OSM      H14F     HAL2     0.900000E-01   1.00800           0
      3943 MEMB     35       OSM      H14G     HAL2     0.900000E-01   1.00800           0
      3944 MEMB     35       OSM      C15F     CTL2    -0.180000       12.0110           0
      3945 MEMB     35       OSM      H15F     HAL2     0.900000E-01   1.00800           0
      3946 MEMB     35       OSM      H15G     HAL2     0.900000E-01   1.00800           0
      3947 MEMB     35       OSM      C16F     CTL2    -0.180000       12.0110           0
      3948 MEMB     35       OSM      H16F     HAL2     0.900000E-01   1.00800           0
      3949 MEMB     35       OSM      H16G     HAL2     0.900000E-01   1.00800           0
      3950 MEMB     35       OSM      C17F     CTL2    -0.180000       12.0110           0
      3951 MEMB     35       OSM      H17F     HAL2     0.900000E-01   1.00800           0
      3952 MEMB     35       OSM      H17G     HAL2     0.900000E-01   1.00800           0
      3953 MEMB     35       OSM      C18F     CTL3    -0.270000       12.0110           0
      3954 MEMB     35       OSM      H18F     HAL3     0.900000E-01   1.00800           0
      3955 MEMB     35       OSM      H18G     HAL3     0.900000E-01   1.00800           0
      3956 MEMB     35       OSM      H18H     HAL3     0.900000E-01   1.00800           0
      3957 MEMB     36       CHL1     C3       CRL1     0.140000       12.0110           0
      3958 MEMB     36       CHL1     H3       HGA1     0.900000E-01   1.00800           0
      3959 MEMB     36       CHL1     O3       OHL     -0.660000       15.9994           0
      3960 MEMB     36       CHL1     H3'      HOL      0.430000       1.00800           0
      3961 MEMB     36       CHL1     C4       CRL2    -0.180000       12.0110           0
      3962 MEMB     36       CHL1     H4A      HGA2     0.900000E-01   1.00800           0
      3963 MEMB     36       CHL1     H4B      HGA2     0.900000E-01   1.00800           0
      3964 MEMB     36       CHL1     C5       CEL1      0.00000       12.0110           0
      3965 MEMB     36       CHL1     C6       CEL1    -0.150000       12.0110           0
      3966 MEMB     36       CHL1     H6       HEL1     0.150000       1.00800           0
      3967 MEMB     36       CHL1     C7       CRL2    -0.180000       12.0110           0
      3968 MEMB     36       CHL1     H7A      HGA2     0.900000E-01   1.00800           0
      3969 MEMB     36       CHL1     H7B      HGA2     0.900000E-01   1.00800           0
      3970 MEMB     36       CHL1     C8       CRL1    -0.900000E-01   12.0110           0
      3971 MEMB     36       CHL1     H8       HGA1     0.900000E-01   1.00800           0
      3972 MEMB     36       CHL1     C14      CRL1    -0.900000E-01   12.0110           0
      3973 MEMB     36       CHL1     H14      HGA1     0.900000E-01   1.00800           0
      3974 MEMB     36       CHL1     C15      CRL2    -0.180000       12.0110           0
      3975 MEMB     36       CHL1     H15A     HGA2     0.900000E-01   1.00800           0
      3976 MEMB     36       CHL1     H15B     HGA2     0.900000E-01   1.00800           0
      3977 MEMB     36       CHL1     C16      CRL2    -0.180000       12.0110           0
      3978 MEMB     36       CHL1     H16A     HGA2     0.900000E-01   1.00800           0
      3979 MEMB     36       CHL1     H16B     HGA2     0.900000E-01   1.00800           0
      3980 MEMB     36       CHL1     C17      CRL1    -0.900000E-01   12.0110           0
      3981 MEMB     36       CHL1     H17      HGA1     0.900000E-01   1.00800           0
      3982 MEMB     36       CHL1     C13      CRL1      0.00000       12.0110           0
      3983 MEMB     36       CHL1     C18      CTL3    -0.270000       12.0110           0
      3984 MEMB     36       CHL1     H18A     HAL3     0.900000E-01   1.00800           0
      3985 MEMB     36       CHL1     H18B     HAL3     0.900000E-01   1.00800           0
      3986 MEMB     36       CHL1     H18C     HAL3     0.900000E-01   1.00800           0
      3987 MEMB     36       CHL1     C12      CRL2    -0.180000       12.0110           0
      3988 MEMB     36       CHL1     H12A     HGA2     0.900000E-01   1.00800           0
      3989 MEMB     36       CHL1     H12B     HGA2     0.900000E-01   1.00800           0
      3990 MEMB     36       CHL1     C11      CRL2    -0.180000       12.0110           0
      3991 MEMB     36       CHL1     H11A     HGA2     0.900000E-01   1.00800           0
      3992 MEMB     36       CHL1     H11B     HGA2     0.900000E-01   1.00800           0
      3993 MEMB     36       CHL1     C9       CRL1    -0.900000E-01   12.0110           0
      3994 MEMB     36       CHL1     H9       HGA1     0.900000E-01   1.00800           0
      3995 MEMB     36       CHL1     C10      CRL1      0.00000       12.0110           0
      3996 MEMB     36       CHL1     C19      CTL3    -0.270000       12.0110           0
      3997 MEMB     36       CHL1     H19A     HAL3     0.900000E-01   1.00800           0
      3998 MEMB     36       CHL1     H19B     HAL3     0.900000E-01   1.00800           0
      3999 MEMB     36       CHL1     H19C     HAL3     0.900000E-01   1.00800           0
      4000 MEMB     36       CHL1     C1       CRL2    -0.180000       12.0110           0
      4001 MEMB     36       CHL1     H1A      HGA2     0.900000E-01   1.00800           0
      4002 MEMB     36       CHL1     H1B      HGA2     0.900000E-01   1.00800           0
      4003 MEMB     36       CHL1     C2       CRL2    -0.180000       12.0110           0
      4004 MEMB     36       CHL1     H2A      HGA2     0.900000E-01   1.00800           0
      4005 MEMB     36       CHL1     H2B      HGA2     0.900000E-01   1.00800           0
      4006 MEMB     36       CHL1     C20      CTL1    -0.900000E-01   12.0110           0
      4007 MEMB     36       CHL1     H20      HAL1     0.900000E-01   1.00800           0
      4008 MEMB     36       CHL1     C21      CTL3    -0.270000       12.0110           0
      4009 MEMB     36       CHL1     H21A     HAL3     0.900000E-01   1.00800           0
      4010 MEMB     36       CHL1     H21B     HAL3     0.900000E-01   1.00800           0
      4011 MEMB     36       CHL1     H21C     HAL3     0.900000E-01   1.00800           0
      4012 MEMB     36       CHL1     C22      CTL2    -0.180000       12.0110           0
      4013 MEMB     36       CHL1     H22A     HAL2     0.900000E-01   1.00800           0
      4014 MEMB     36       CHL1     H22B     HAL2     0.900000E-01   1.00800           0
      4015 MEMB     36       CHL1     C23      CTL2    -0.180000       12.0110           0
      4016 MEMB     36       CHL1     H23A     HAL2     0.900000E-01   1.00800           0
      4017 MEMB     36       CHL1     H23B     HAL2     0.900000E-01   1.00800           0
      4018 MEMB     36       CHL1     C24      CTL2    -0.180000       12.0110           0
      4019 MEMB     36       CHL1     H24A     HAL2     0.900000E-01   1.00800           0
      4020 MEMB     36       CHL1     H24B     HAL2     0.900000E-01   1.00800           0
      4021 MEMB     36       CHL1     C25      CTL1    -0.900000E-01   12.0110           0
      4022 MEMB     36       CHL1     H25      HAL1     0.900000E-01   1.00800           0
      4023 MEMB     36       CHL1     C26      CTL3    -0.270000       12.0110           0
      4024 MEMB     36       CHL1     H26A     HAL3     0.900000E-01   1.00800           0
      4025 MEMB     36       CHL1     H26B     HAL3     0.900000E-01   1.00800           0
      4026 MEMB     36       CHL1     H26C     HAL3     0.900000E-01   1.00800           0
      4027 MEMB     36       CHL1     C27      CTL3    -0.270000       12.0110           0
      4028 MEMB     36       CHL1     H27A     HAL3     0.900000E-01   1.00800           0
      4029 MEMB     36       CHL1     H27B     HAL3     0.900000E-01   1.00800           0
      4030 MEMB     36       CHL1     H27C     HAL3     0.900000E-01   1.00800           0
      4031 MEMB     37       POPC     N        NTL     -0.600000       14.0070           0
      4032 MEMB     37       POPC     C12      CTL2    -0.100000       12.0110           0
      4033 MEMB     37       POPC     H12A     HL       0.250000       1.00800           0
      4034 MEMB     37       POPC     H12B     HL       0.250000       1.00800           0
      4035 MEMB     37       POPC     C13      CTL5    -0.350000       12.0110           0
      4036 MEMB     37       POPC     H13A     HL       0.250000       1.00800           0
      4037 MEMB     37       POPC     H13B     HL       0.250000       1.00800           0
      4038 MEMB     37       POPC     H13C     HL       0.250000       1.00800           0
      4039 MEMB     37       POPC     C14      CTL5    -0.350000       12.0110           0
      4040 MEMB     37       POPC     H14A     HL       0.250000       1.00800           0
      4041 MEMB     37       POPC     H14B     HL       0.250000       1.00800           0
      4042 MEMB     37       POPC     H14C     HL       0.250000       1.00800           0
      4043 MEMB     37       POPC     C15      CTL5    -0.350000       12.0110           0
      4044 MEMB     37       POPC     H15A     HL       0.250000       1.00800           0
      4045 MEMB     37       POPC     H15B     HL       0.250000       1.00800           0
      4046 MEMB     37       POPC     H15C     HL       0.250000       1.00800           0
      4047 MEMB     37       POPC     C11      CTL2    -0.800000E-01   12.0110           0
      4048 MEMB     37       POPC     H11A     HAL2     0.900000E-01   1.00800           0
      4049 MEMB     37       POPC     H11B     HAL2     0.900000E-01   1.00800           0
      4050 MEMB     37       POPC     P        PL        1.50000       30.9740           0
      4051 MEMB     37       POPC     O13      O2L     -0.780000       15.9994           0
      4052 MEMB     37       POPC     O14      O2L     -0.780000       15.9994           0
      4053 MEMB     37       POPC     O12      OSLP    -0.570000       15.9994           0
      4054 MEMB     37       POPC     O11      OSLP    -0.570000       15.9994           0
      4055 MEMB     37       POPC     C1       CTL2    -0.800000E-01   12.0110           0
      4056 MEMB     37       POPC     HA       HAL2     0.900000E-01   1.00800           0
      4057 MEMB     37       POPC     HB       HAL2     0.900000E-01   1.00800           0
      4058 MEMB     37       POPC     C2       CTL1     0.170000       12.0110           0
      4059 MEMB     37       POPC     HS       HAL1     0.900000E-01   1.00800           0
      4060 MEMB     37       POPC     O21      OSL     -0.490000       15.9994           0
      4061 MEMB     37       POPC     C21      CL       0.900000       12.0110           0
      4062 MEMB     37       POPC     O22      OBL     -0.630000       15.9994           0
      4063 MEMB     37       POPC     C22      CTL2    -0.220000       12.0110           0
      4064 MEMB     37       POPC     H2R      HAL2     0.900000E-01   1.00800           0
      4065 MEMB     37       POPC     H2S      HAL2     0.900000E-01   1.00800           0
      4066 MEMB     37       POPC     C3       CTL2     0.800000E-01   12.0110           0
      4067 MEMB     37       POPC     HX       HAL2     0.900000E-01   1.00800           0
      4068 MEMB     37       POPC     HY       HAL2     0.900000E-01   1.00800           0
      4069 MEMB     37       POPC     O31      OSL     -0.490000       15.9994           0
      4070 MEMB     37       POPC     C31      CL       0.900000       12.0110           0
      4071 MEMB     37       POPC     O32      OBL     -0.630000       15.9994           0
      4072 MEMB     37       POPC     C32      CTL2    -0.220000       12.0110           0
      4073 MEMB     37       POPC     H2X      HAL2     0.900000E-01   1.00800           0
      4074 MEMB     37       POPC     H2Y      HAL2     0.900000E-01   1.00800           0
      4075 MEMB     37       POPC     C23      CTL2    -0.180000       12.0110           0
      4076 MEMB     37       POPC     H3R      HAL2     0.900000E-01   1.00800           0
      4077 MEMB     37       POPC     H3S      HAL2     0.900000E-01   1.00800           0
      4078 MEMB     37       POPC     C24      CTL2    -0.180000       12.0110           0
      4079 MEMB     37       POPC     H4R      HAL2     0.900000E-01   1.00800           0
      4080 MEMB     37       POPC     H4S      HAL2     0.900000E-01   1.00800           0
      4081 MEMB     37       POPC     C25      CTL2    -0.180000       12.0110           0
      4082 MEMB     37       POPC     H5R      HAL2     0.900000E-01   1.00800           0
      4083 MEMB     37       POPC     H5S      HAL2     0.900000E-01   1.00800           0
      4084 MEMB     37       POPC     C26      CTL2    -0.180000       12.0110           0
      4085 MEMB     37       POPC     H6R      HAL2     0.900000E-01   1.00800           0
      4086 MEMB     37       POPC     H6S      HAL2     0.900000E-01   1.00800           0
      4087 MEMB     37       POPC     C27      CTL2    -0.180000       12.0110           0
      4088 MEMB     37       POPC     H7R      HAL2     0.900000E-01   1.00800           0
      4089 MEMB     37       POPC     H7S      HAL2     0.900000E-01   1.00800           0
      4090 MEMB     37       POPC     C28      CTL2    -0.180000       12.0110           0
      4091 MEMB     37       POPC     H8R      HAL2     0.900000E-01   1.00800           0
      4092 MEMB     37       POPC     H8S      HAL2     0.900000E-01   1.00800           0
      4093 MEMB     37       POPC     C29      CEL1    -0.150000       12.0110           0
      4094 MEMB     37       POPC     H91      HEL1     0.150000       1.00800           0
      4095 MEMB     37       POPC     C210     CEL1    -0.150000       12.0110           0
      4096 MEMB     37       POPC     H101     HEL1     0.150000       1.00800           0
      4097 MEMB     37       POPC     C211     CTL2    -0.180000       12.0110           0
      4098 MEMB     37       POPC     H11R     HAL2     0.900000E-01   1.00800           0
      4099 MEMB     37       POPC     H11S     HAL2     0.900000E-01   1.00800           0
      4100 MEMB     37       POPC     C212     CTL2    -0.180000       12.0110           0
      4101 MEMB     37       POPC     H12R     HAL2     0.900000E-01   1.00800           0
      4102 MEMB     37       POPC     H12S     HAL2     0.900000E-01   1.00800           0
      4103 MEMB     37       POPC     C213     CTL2    -0.180000       12.0110           0
      4104 MEMB     37       POPC     H13R     HAL2     0.900000E-01   1.00800           0
      4105 MEMB     37       POPC     H13S     HAL2     0.900000E-01   1.00800           0
      4106 MEMB     37       POPC     C214     CTL2    -0.180000       12.0110           0
      4107 MEMB     37       POPC     H14R     HAL2     0.900000E-01   1.00800           0
      4108 MEMB     37       POPC     H14S     HAL2     0.900000E-01   1.00800           0
      4109 MEMB     37       POPC     C215     CTL2    -0.180000       12.0110           0
      4110 MEMB     37       POPC     H15R     HAL2     0.900000E-01   1.00800           0
      4111 MEMB     37       POPC     H15S     HAL2     0.900000E-01   1.00800           0
      4112 MEMB     37       POPC     C216     CTL2    -0.180000       12.0110           0
      4113 MEMB     37       POPC     H16R     HAL2     0.900000E-01   1.00800           0
      4114 MEMB     37       POPC     H16S     HAL2     0.900000E-01   1.00800           0
      4115 MEMB     37       POPC     C217     CTL2    -0.180000       12.0110           0
      4116 MEMB     37       POPC     H17R     HAL2     0.900000E-01   1.00800           0
      4117 MEMB     37       POPC     H17S     HAL2     0.900000E-01   1.00800           0
      4118 MEMB     37       POPC     C218     CTL3    -0.270000       12.0110           0
      4119 MEMB     37       POPC     H18R     HAL3     0.900000E-01   1.00800           0
      4120 MEMB     37       POPC     H18S     HAL3     0.900000E-01   1.00800           0
      4121 MEMB     37       POPC     H18T     HAL3     0.900000E-01   1.00800           0
      4122 MEMB     37       POPC     C33      CTL2    -0.180000       12.0110           0
      4123 MEMB     37       POPC     H3X      HAL2     0.900000E-01   1.00800           0
      4124 MEMB     37       POPC     H3Y      HAL2     0.900000E-01   1.00800           0
      4125 MEMB     37       POPC     C34      CTL2    -0.180000       12.0110           0
      4126 MEMB     37       POPC     H4X      HAL2     0.900000E-01   1.00800           0
      4127 MEMB     37       POPC     H4Y      HAL2     0.900000E-01   1.00800           0
      4128 MEMB     37       POPC     C35      CTL2    -0.180000       12.0110           0
      4129 MEMB     37       POPC     H5X      HAL2     0.900000E-01   1.00800           0
      4130 MEMB     37       POPC     H5Y      HAL2     0.900000E-01   1.00800           0
      4131 MEMB     37       POPC     C36      CTL2    -0.180000       12.0110           0
      4132 MEMB     37       POPC     H6X      HAL2     0.900000E-01   1.00800           0
      4133 MEMB     37       POPC     H6Y      HAL2     0.900000E-01   1.00800           0
      4134 MEMB     37       POPC     C37      CTL2    -0.180000       12.0110           0
      4135 MEMB     37       POPC     H7X      HAL2     0.900000E-01   1.00800           0
      4136 MEMB     37       POPC     H7Y      HAL2     0.900000E-01   1.00800           0
      4137 MEMB     37       POPC     C38      CTL2    -0.180000       12.0110           0
      4138 MEMB     37       POPC     H8X      HAL2     0.900000E-01   1.00800           0
      4139 MEMB     37       POPC     H8Y      HAL2     0.900000E-01   1.00800           0
      4140 MEMB     37       POPC     C39      CTL2    -0.180000       12.0110           0
      4141 MEMB     37       POPC     H9X      HAL2     0.900000E-01   1.00800           0
      4142 MEMB     37       POPC     H9Y      HAL2     0.900000E-01   1.00800           0
      4143 MEMB     37       POPC     C310     CTL2    -0.180000       12.0110           0
      4144 MEMB     37       POPC     H10X     HAL2     0.900000E-01   1.00800           0
      4145 MEMB     37       POPC     H10Y     HAL2     0.900000E-01   1.00800           0
      4146 MEMB     37       POPC     C311     CTL2    -0.180000       12.0110           0
      4147 MEMB     37       POPC     H11X     HAL2     0.900000E-01   1.00800           0
      4148 MEMB     37       POPC     H11Y     HAL2     0.900000E-01   1.00800           0
      4149 MEMB     37       POPC     C312     CTL2    -0.180000       12.0110           0
      4150 MEMB     37       POPC     H12X     HAL2     0.900000E-01   1.00800           0
      4151 MEMB     37       POPC     H12Y     HAL2     0.900000E-01   1.00800           0
      4152 MEMB     37       POPC     C313     CTL2    -0.180000       12.0110           0
      4153 MEMB     37       POPC     H13X     HAL2     0.900000E-01   1.00800           0
      4154 MEMB     37       POPC     H13Y     HAL2     0.900000E-01   1.00800           0
      4155 MEMB     37       POPC     C314     CTL2    -0.180000       12.0110           0
      4156 MEMB     37       POPC     H14X     HAL2     0.900000E-01   1.00800           0
      4157 MEMB     37       POPC     H14Y     HAL2     0.900000E-01   1.00800           0
      4158 MEMB     37       POPC     C315     CTL2    -0.180000       12.0110           0
      4159 MEMB     37       POPC     H15X     HAL2     0.900000E-01   1.00800           0
      4160 MEMB     37       POPC     H15Y     HAL2     0.900000E-01   1.00800           0
      4161 MEMB     37       POPC     C316     CTL3    -0.270000       12.0110           0
      4162 MEMB     37       POPC     H16X     HAL3     0.900000E-01   1.00800           0
      4163 MEMB     37       POPC     H16Y     HAL3     0.900000E-01   1.00800           0
      4164 MEMB     37       POPC     H16Z     HAL3     0.900000E-01   1.00800           0
      4165 MEMB     38       OSM      N        NTL     -0.600000       14.0070           0
      4166 MEMB     38       OSM      C15      CTL5    -0.350000       12.0110           0
      4167 MEMB     38       OSM      H15A     HL       0.250000       1.00800           0
      4168 MEMB     38       OSM      H15B     HL       0.250000       1.00800           0
      4169 MEMB     38       OSM      H15C     HL       0.250000       1.00800           0
      4170 MEMB     38       OSM      C14      CTL5    -0.350000       12.0110           0
      4171 MEMB     38       OSM      H14A     HL       0.250000       1.00800           0
      4172 MEMB     38       OSM      H14B     HL       0.250000       1.00800           0
      4173 MEMB     38       OSM      H14C     HL       0.250000       1.00800           0
      4174 MEMB     38       OSM      C13      CTL5    -0.350000       12.0110           0
      4175 MEMB     38       OSM      H13A     HL       0.250000       1.00800           0
      4176 MEMB     38       OSM      H13B     HL       0.250000       1.00800           0
      4177 MEMB     38       OSM      H13C     HL       0.250000       1.00800           0
      4178 MEMB     38       OSM      C12      CTL2    -0.100000       12.0110           0
      4179 MEMB     38       OSM      H12A     HL       0.250000       1.00800           0
      4180 MEMB     38       OSM      H12B     HL       0.250000       1.00800           0
      4181 MEMB     38       OSM      C11      CTL2    -0.800000E-01   12.0110           0
      4182 MEMB     38       OSM      H11A     HAL2     0.900000E-01   1.00800           0
      4183 MEMB     38       OSM      H11B     HAL2     0.900000E-01   1.00800           0
      4184 MEMB     38       OSM      P        PL        1.50000       30.9740           0
      4185 MEMB     38       OSM      O13      O2L     -0.780000       15.9994           0
      4186 MEMB     38       OSM      O14      O2L     -0.780000       15.9994           0
      4187 MEMB     38       OSM      O11      OSLP    -0.570000       15.9994           0
      4188 MEMB     38       OSM      O12      OSLP    -0.570000       15.9994           0
      4189 MEMB     38       OSM      C1S      CTL2    -0.800000E-01   12.0110           0
      4190 MEMB     38       OSM      H1S      HAL2     0.900000E-01   1.00800           0
      4191 MEMB     38       OSM      H1T      HAL2     0.900000E-01   1.00800           0
      4192 MEMB     38       OSM      NF       NHL     -0.700000       14.0070           0
      4193 MEMB     38       OSM      HNF      H        0.350000       1.00800           0
      4194 MEMB     38       OSM      C2S      CTL1     0.300000       12.0110           0
      4195 MEMB     38       OSM      H2S      HAL1     0.500000E-01   1.00800           0
      4196 MEMB     38       OSM      C3S      CTO1     0.500000       12.0110           0
      4197 MEMB     38       OSM      H3S      HAL1    -0.110000       1.00800           0
      4198 MEMB     38       OSM      O3       OHL     -0.690000       15.9994           0
      4199 MEMB     38       OSM      HO3      HOL      0.300000       1.00800           0
      4200 MEMB     38       OSM      C4S      CEL3    -0.150000       12.0110           0
      4201 MEMB     38       OSM      H4S      HEL1     0.150000       1.00800           0
      4202 MEMB     38       OSM      C5S      CEL3    -0.150000       12.0110           0
      4203 MEMB     38       OSM      H5S      HEL1     0.150000       1.00800           0
      4204 MEMB     38       OSM      C6S      CTL2    -0.180000       12.0110           0
      4205 MEMB     38       OSM      H6S      HAL2     0.900000E-01   1.00800           0
      4206 MEMB     38       OSM      H6T      HAL2     0.900000E-01   1.00800           0
      4207 MEMB     38       OSM      C7S      CTL2    -0.180000       12.0110           0
      4208 MEMB     38       OSM      H7S      HAL2     0.900000E-01   1.00800           0
      4209 MEMB     38       OSM      H7T      HAL2     0.900000E-01   1.00800           0
      4210 MEMB     38       OSM      C8S      CTL2    -0.180000       12.0110           0
      4211 MEMB     38       OSM      H8S      HAL2     0.900000E-01   1.00800           0
      4212 MEMB     38       OSM      H8T      HAL2     0.900000E-01   1.00800           0
      4213 MEMB     38       OSM      C9S      CTL2    -0.180000       12.0110           0
      4214 MEMB     38       OSM      H9S      HAL2     0.900000E-01   1.00800           0
      4215 MEMB     38       OSM      H9T      HAL2     0.900000E-01   1.00800           0
      4216 MEMB     38       OSM      C10S     CTL2    -0.180000       12.0110           0
      4217 MEMB     38       OSM      H10S     HAL2     0.900000E-01   1.00800           0
      4218 MEMB     38       OSM      H10T     HAL2     0.900000E-01   1.00800           0
      4219 MEMB     38       OSM      C11S     CTL2    -0.180000       12.0110           0
      4220 MEMB     38       OSM      H11S     HAL2     0.900000E-01   1.00800           0
      4221 MEMB     38       OSM      H11T     HAL2     0.900000E-01   1.00800           0
      4222 MEMB     38       OSM      C12S     CTL2    -0.180000       12.0110           0
      4223 MEMB     38       OSM      H12S     HAL2     0.900000E-01   1.00800           0
      4224 MEMB     38       OSM      H12T     HAL2     0.900000E-01   1.00800           0
      4225 MEMB     38       OSM      C13S     CTL2    -0.180000       12.0110           0
      4226 MEMB     38       OSM      H13S     HAL2     0.900000E-01   1.00800           0
      4227 MEMB     38       OSM      H13T     HAL2     0.900000E-01   1.00800           0
      4228 MEMB     38       OSM      C14S     CTL2    -0.180000       12.0110           0
      4229 MEMB     38       OSM      H14S     HAL2     0.900000E-01   1.00800           0
      4230 MEMB     38       OSM      H14T     HAL2     0.900000E-01   1.00800           0
      4231 MEMB     38       OSM      C15S     CTL2    -0.180000       12.0110           0
      4232 MEMB     38       OSM      H15S     HAL2     0.900000E-01   1.00800           0
      4233 MEMB     38       OSM      H15T     HAL2     0.900000E-01   1.00800           0
      4234 MEMB     38       OSM      C16S     CTL2    -0.180000       12.0110           0
      4235 MEMB     38       OSM      H16S     HAL2     0.900000E-01   1.00800           0
      4236 MEMB     38       OSM      H16T     HAL2     0.900000E-01   1.00800           0
      4237 MEMB     38       OSM      C17S     CTL2    -0.180000       12.0110           0
      4238 MEMB     38       OSM      H17S     HAL2     0.900000E-01   1.00800           0
      4239 MEMB     38       OSM      H17T     HAL2     0.900000E-01   1.00800           0
      4240 MEMB     38       OSM      C18S     CTL3    -0.270000       12.0110           0
      4241 MEMB     38       OSM      H18S     HAL3     0.900000E-01   1.00800           0
      4242 MEMB     38       OSM      H18T     HAL3     0.900000E-01   1.00800           0
      4243 MEMB     38       OSM      H18U     HAL3     0.900000E-01   1.00800           0
      4244 MEMB     38       OSM      C1F      C        0.550000       12.0110           0
      4245 MEMB     38       OSM      OF       O       -0.600000       15.9994           0
      4246 MEMB     38       OSM      C2F      CTL2    -0.700000E-01   12.0110           0
      4247 MEMB     38       OSM      H2F      HAL2     0.600000E-01   1.00800           0
      4248 MEMB     38       OSM      H2G      HAL2     0.600000E-01   1.00800           0
      4249 MEMB     38       OSM      C3F      CTL2    -0.180000       12.0110           0
      4250 MEMB     38       OSM      H3F      HAL2     0.900000E-01   1.00800           0
      4251 MEMB     38       OSM      H3G      HAL2     0.900000E-01   1.00800           0
      4252 MEMB     38       OSM      C4F      CTL2    -0.180000       12.0110           0
      4253 MEMB     38       OSM      H4F      HAL2     0.900000E-01   1.00800           0
      4254 MEMB     38       OSM      H4G      HAL2     0.900000E-01   1.00800           0
      4255 MEMB     38       OSM      C5F      CTL2    -0.180000       12.0110           0
      4256 MEMB     38       OSM      H5F      HAL2     0.900000E-01   1.00800           0
      4257 MEMB     38       OSM      H5G      HAL2     0.900000E-01   1.00800           0
      4258 MEMB     38       OSM      C6F      CTL2    -0.180000       12.0110           0
      4259 MEMB     38       OSM      H6F      HAL2     0.900000E-01   1.00800           0
      4260 MEMB     38       OSM      H6G      HAL2     0.900000E-01   1.00800           0
      4261 MEMB     38       OSM      C7F      CTL2    -0.180000       12.0110           0
      4262 MEMB     38       OSM      H7F      HAL2     0.900000E-01   1.00800           0
      4263 MEMB     38       OSM      H7G      HAL2     0.900000E-01   1.00800           0
      4264 MEMB     38       OSM      C8F      CTL2    -0.180000       12.0110           0
      4265 MEMB     38       OSM      H8F      HAL2     0.900000E-01   1.00800           0
      4266 MEMB     38       OSM      H8G      HAL2     0.900000E-01   1.00800           0
      4267 MEMB     38       OSM      C9F      CEL1    -0.150000       12.0110           0
      4268 MEMB     38       OSM      H9F      HEL1     0.150000       1.00800           0
      4269 MEMB     38       OSM      C10F     CEL1    -0.150000       12.0110           0
      4270 MEMB     38       OSM      H10F     HEL1     0.150000       1.00800           0
      4271 MEMB     38       OSM      C11F     CTL2    -0.180000       12.0110           0
      4272 MEMB     38       OSM      H11F     HAL2     0.900000E-01   1.00800           0
      4273 MEMB     38       OSM      H11G     HAL2     0.900000E-01   1.00800           0
      4274 MEMB     38       OSM      C12F     CTL2    -0.180000       12.0110           0
      4275 MEMB     38       OSM      H12F     HAL2     0.900000E-01   1.00800           0
      4276 MEMB     38       OSM      H12G     HAL2     0.900000E-01   1.00800           0
      4277 MEMB     38       OSM      C13F     CTL2    -0.180000       12.0110           0
      4278 MEMB     38       OSM      H13F     HAL2     0.900000E-01   1.00800           0
      4279 MEMB     38       OSM      H13G     HAL2     0.900000E-01   1.00800           0
      4280 MEMB     38       OSM      C14F     CTL2    -0.180000       12.0110           0
      4281 MEMB     38       OSM      H14F     HAL2     0.900000E-01   1.00800           0
      4282 MEMB     38       OSM      H14G     HAL2     0.900000E-01   1.00800           0
      4283 MEMB     38       OSM      C15F     CTL2    -0.180000       12.0110           0
      4284 MEMB     38       OSM      H15F     HAL2     0.900000E-01   1.00800           0
      4285 MEMB     38       OSM      H15G     HAL2     0.900000E-01   1.00800           0
      4286 MEMB     38       OSM      C16F     CTL2    -0.180000       12.0110           0
      4287 MEMB     38       OSM      H16F     HAL2     0.900000E-01   1.00800           0
      4288 MEMB     38       OSM      H16G     HAL2     0.900000E-01   1.00800           0
      4289 MEMB     38       OSM      C17F     CTL2    -0.180000       12.0110           0
      4290 MEMB     38       OSM      H17F     HAL2     0.900000E-01   1.00800           0
      4291 MEMB     38       OSM      H17G     HAL2     0.900000E-01   1.00800           0
      4292 MEMB     38       OSM      C18F     CTL3    -0.270000       12.0110           0
      4293 MEMB     38       OSM      H18F     HAL3     0.900000E-01   1.00800           0
      4294 MEMB     38       OSM      H18G     HAL3     0.900000E-01   1.00800           0
      4295 MEMB     38       OSM      H18H     HAL3     0.900000E-01   1.00800           0
      4296 MEMB     39       SAPI     C12      CC3161   0.140000       12.0110           0
      4297 MEMB     39       SAPI     H2       HCA1     0.900000E-01   1.00800           0
      4298 MEMB     39       SAPI     O2       OC311   -0.650000       15.9994           0
      4299 MEMB     39       SAPI     HO2      HCP1     0.420000       1.00800           0
      4300 MEMB     39       SAPI     C13      CC3161   0.140000       12.0110           0
      4301 MEMB     39       SAPI     H3       HCA1     0.900000E-01   1.00800           0
      4302 MEMB     39       SAPI     O3       OC311   -0.650000       15.9994           0
      4303 MEMB     39       SAPI     HO3      HCP1     0.420000       1.00800           0
      4304 MEMB     39       SAPI     C14      CC3161   0.140000       12.0110           0
      4305 MEMB     39       SAPI     H4       HCA1     0.900000E-01   1.00800           0
      4306 MEMB     39       SAPI     O4       OC311   -0.650000       15.9994           0
      4307 MEMB     39       SAPI     HO4      HCP1     0.420000       1.00800           0
      4308 MEMB     39       SAPI     C15      CC3161   0.140000       12.0110           0
      4309 MEMB     39       SAPI     H5       HCA1     0.900000E-01   1.00800           0
      4310 MEMB     39       SAPI     O5       OC311   -0.650000       15.9994           0
      4311 MEMB     39       SAPI     HO5      HCP1     0.420000       1.00800           0
      4312 MEMB     39       SAPI     C16      CC3161   0.140000       12.0110           0
      4313 MEMB     39       SAPI     H6       HCA1     0.900000E-01   1.00800           0
      4314 MEMB     39       SAPI     O6       OC311   -0.650000       15.9994           0
      4315 MEMB     39       SAPI     HO6      HCP1     0.420000       1.00800           0
      4316 MEMB     39       SAPI     C11      CC3161  -0.800000E-01   12.0110           0
      4317 MEMB     39       SAPI     H1       HCA1     0.900000E-01   1.00800           0
      4318 MEMB     39       SAPI     P        PL        1.59000       30.9740           0
      4319 MEMB     39       SAPI     O13      O2L     -0.780000       15.9994           0
      4320 MEMB     39       SAPI     O14      O2L     -0.780000       15.9994           0
      4321 MEMB     39       SAPI     O12      OC30P   -0.570000       15.9994           0
      4322 MEMB     39       SAPI     O11      OSLP    -0.570000       15.9994           0
      4323 MEMB     39       SAPI     C1       CTL2    -0.800000E-01   12.0110           0
      4324 MEMB     39       SAPI     HA       HAL2     0.900000E-01   1.00800           0
      4325 MEMB     39       SAPI     HB       HAL2     0.900000E-01   1.00800           0
      4326 MEMB     39       SAPI     C2       CTL1     0.170000       12.0110           0
      4327 MEMB     39       SAPI     HS       HAL1     0.900000E-01   1.00800           0
      4328 MEMB     39       SAPI     O21      OSL     -0.490000       15.9994           0
      4329 MEMB     39       SAPI     C21      CL       0.900000       12.0110           0
      4330 MEMB     39       SAPI     O22      OBL     -0.630000       15.9994           0
      4331 MEMB     39       SAPI     C22      CTL2    -0.220000       12.0110           0
      4332 MEMB     39       SAPI     H2R      HAL2     0.900000E-01   1.00800           0
      4333 MEMB     39       SAPI     H2S      HAL2     0.900000E-01   1.00800           0
      4334 MEMB     39       SAPI     C3       CTL2     0.800000E-01   12.0110           0
      4335 MEMB     39       SAPI     HX       HAL2     0.900000E-01   1.00800           0
      4336 MEMB     39       SAPI     HY       HAL2     0.900000E-01   1.00800           0
      4337 MEMB     39       SAPI     O31      OSL     -0.490000       15.9994           0
      4338 MEMB     39       SAPI     C31      CL       0.900000       12.0110           0
      4339 MEMB     39       SAPI     O32      OBL     -0.630000       15.9994           0
      4340 MEMB     39       SAPI     C32      CTL2    -0.220000       12.0110           0
      4341 MEMB     39       SAPI     H2X      HAL2     0.900000E-01   1.00800           0
      4342 MEMB     39       SAPI     H2Y      HAL2     0.900000E-01   1.00800           0
      4343 MEMB     39       SAPI     C23      CTL2    -0.180000       12.0110           0
      4344 MEMB     39       SAPI     H3R      HAL2     0.900000E-01   1.00800           0
      4345 MEMB     39       SAPI     H3S      HAL2     0.900000E-01   1.00800           0
      4346 MEMB     39       SAPI     C24      CTL2    -0.180000       12.0110           0
      4347 MEMB     39       SAPI     H4R      HAL2     0.900000E-01   1.00800           0
      4348 MEMB     39       SAPI     H4S      HAL2     0.900000E-01   1.00800           0
      4349 MEMB     39       SAPI     C25      CEL1    -0.150000       12.0110           0
      4350 MEMB     39       SAPI     H5R      HEL1     0.150000       1.00800           0
      4351 MEMB     39       SAPI     C26      CEL1    -0.150000       12.0110           0
      4352 MEMB     39       SAPI     H6R      HEL1     0.150000       1.00800           0
      4353 MEMB     39       SAPI     C27      CTL2    -0.180000       12.0110           0
      4354 MEMB     39       SAPI     H7R      HAL2     0.900000E-01   1.00800           0
      4355 MEMB     39       SAPI     H7S      HAL2     0.900000E-01   1.00800           0
      4356 MEMB     39       SAPI     C28      CEL1    -0.150000       12.0110           0
      4357 MEMB     39       SAPI     H8R      HEL1     0.150000       1.00800           0
      4358 MEMB     39       SAPI     C29      CEL1    -0.150000       12.0110           0
      4359 MEMB     39       SAPI     H9R      HEL1     0.150000       1.00800           0
      4360 MEMB     39       SAPI     C210     CTL2    -0.180000       12.0110           0
      4361 MEMB     39       SAPI     H10R     HAL2     0.900000E-01   1.00800           0
      4362 MEMB     39       SAPI     H10S     HAL2     0.900000E-01   1.00800           0
      4363 MEMB     39       SAPI     C211     CEL1    -0.150000       12.0110           0
      4364 MEMB     39       SAPI     H11R     HEL1     0.150000       1.00800           0
      4365 MEMB     39       SAPI     C212     CEL1    -0.150000       12.0110           0
      4366 MEMB     39       SAPI     H12R     HEL1     0.150000       1.00800           0
      4367 MEMB     39       SAPI     C213     CTL2    -0.180000       12.0110           0
      4368 MEMB     39       SAPI     H13R     HAL2     0.900000E-01   1.00800           0
      4369 MEMB     39       SAPI     H13S     HAL2     0.900000E-01   1.00800           0
      4370 MEMB     39       SAPI     C214     CEL1    -0.150000       12.0110           0
      4371 MEMB     39       SAPI     H14R     HEL1     0.150000       1.00800           0
      4372 MEMB     39       SAPI     C215     CEL1    -0.150000       12.0110           0
      4373 MEMB     39       SAPI     H15R     HEL1     0.150000       1.00800           0
      4374 MEMB     39       SAPI     C216     CTL2    -0.180000       12.0110           0
      4375 MEMB     39       SAPI     H16R     HAL2     0.900000E-01   1.00800           0
      4376 MEMB     39       SAPI     H16S     HAL2     0.900000E-01   1.00800           0
      4377 MEMB     39       SAPI     C217     CTL2    -0.180000       12.0110           0
      4378 MEMB     39       SAPI     H17R     HAL2     0.900000E-01   1.00800           0
      4379 MEMB     39       SAPI     H17S     HAL2     0.900000E-01   1.00800           0
      4380 MEMB     39       SAPI     C218     CTL2    -0.180000       12.0110           0
      4381 MEMB     39       SAPI     H18R     HAL2     0.900000E-01   1.00800           0
      4382 MEMB     39       SAPI     H18S     HAL2     0.900000E-01   1.00800           0
      4383 MEMB     39       SAPI     C219     CTL2    -0.180000       12.0110           0
      4384 MEMB     39       SAPI     H19R     HAL2     0.900000E-01   1.00800           0
      4385 MEMB     39       SAPI     H19S     HAL2     0.900000E-01   1.00800           0
      4386 MEMB     39       SAPI     C220     CTL3    -0.270000       12.0110           0
      4387 MEMB     39       SAPI     H20R     HAL3     0.900000E-01   1.00800           0
      4388 MEMB     39       SAPI     H20S     HAL3     0.900000E-01   1.00800           0
      4389 MEMB     39       SAPI     H20T     HAL3     0.900000E-01   1.00800           0
      4390 MEMB     39       SAPI     C33      CTL2    -0.180000       12.0110           0
      4391 MEMB     39       SAPI     H3X      HAL2     0.900000E-01   1.00800           0
      4392 MEMB     39       SAPI     H3Y      HAL2     0.900000E-01   1.00800           0
      4393 MEMB     39       SAPI     C34      CTL2    -0.180000       12.0110           0
      4394 MEMB     39       SAPI     H4X      HAL2     0.900000E-01   1.00800           0
      4395 MEMB     39       SAPI     H4Y      HAL2     0.900000E-01   1.00800           0
      4396 MEMB     39       SAPI     C35      CTL2    -0.180000       12.0110           0
      4397 MEMB     39       SAPI     H5X      HAL2     0.900000E-01   1.00800           0
      4398 MEMB     39       SAPI     H5Y      HAL2     0.900000E-01   1.00800           0
      4399 MEMB     39       SAPI     C36      CTL2    -0.180000       12.0110           0
      4400 MEMB     39       SAPI     H6X      HAL2     0.900000E-01   1.00800           0
      4401 MEMB     39       SAPI     H6Y      HAL2     0.900000E-01   1.00800           0
      4402 MEMB     39       SAPI     C37      CTL2    -0.180000       12.0110           0
      4403 MEMB     39       SAPI     H7X      HAL2     0.900000E-01   1.00800           0
      4404 MEMB     39       SAPI     H7Y      HAL2     0.900000E-01   1.00800           0
      4405 MEMB     39       SAPI     C38      CTL2    -0.180000       12.0110           0
      4406 MEMB     39       SAPI     H8X      HAL2     0.900000E-01   1.00800           0
      4407 MEMB     39       SAPI     H8Y      HAL2     0.900000E-01   1.00800           0
      4408 MEMB     39       SAPI     C39      CTL2    -0.180000       12.0110           0
      4409 MEMB     39       SAPI     H9X      HAL2     0.900000E-01   1.00800           0
      4410 MEMB     39       SAPI     H9Y      HAL2     0.900000E-01   1.00800           0
      4411 MEMB     39       SAPI     C310     CTL2    -0.180000       12.0110           0
      4412 MEMB     39       SAPI     H10X     HAL2     0.900000E-01   1.00800           0
      4413 MEMB     39       SAPI     H10Y     HAL2     0.900000E-01   1.00800           0
      4414 MEMB     39       SAPI     C311     CTL2    -0.180000       12.0110           0
      4415 MEMB     39       SAPI     H11X     HAL2     0.900000E-01   1.00800           0
      4416 MEMB     39       SAPI     H11Y     HAL2     0.900000E-01   1.00800           0
      4417 MEMB     39       SAPI     C312     CTL2    -0.180000       12.0110           0
      4418 MEMB     39       SAPI     H12X     HAL2     0.900000E-01   1.00800           0
      4419 MEMB     39       SAPI     H12Y     HAL2     0.900000E-01   1.00800           0
      4420 MEMB     39       SAPI     C313     CTL2    -0.180000       12.0110           0
      4421 MEMB     39       SAPI     H13X     HAL2     0.900000E-01   1.00800           0
      4422 MEMB     39       SAPI     H13Y     HAL2     0.900000E-01   1.00800           0
      4423 MEMB     39       SAPI     C314     CTL2    -0.180000       12.0110           0
      4424 MEMB     39       SAPI     H14X     HAL2     0.900000E-01   1.00800           0
      4425 MEMB     39       SAPI     H14Y     HAL2     0.900000E-01   1.00800           0
      4426 MEMB     39       SAPI     C315     CTL2    -0.180000       12.0110           0
      4427 MEMB     39       SAPI     H15X     HAL2     0.900000E-01   1.00800           0
      4428 MEMB     39       SAPI     H15Y     HAL2     0.900000E-01   1.00800           0
      4429 MEMB     39       SAPI     C316     CTL2    -0.180000       12.0110           0
      4430 MEMB     39       SAPI     H16X     HAL2     0.900000E-01   1.00800           0
      4431 MEMB     39       SAPI     H16Y     HAL2     0.900000E-01   1.00800           0
      4432 MEMB     39       SAPI     C317     CTL2    -0.180000       12.0110           0
      4433 MEMB     39       SAPI     H17X     HAL2     0.900000E-01   1.00800           0
      4434 MEMB     39       SAPI     H17Y     HAL2     0.900000E-01   1.00800           0
      4435 MEMB     39       SAPI     C318     CTL3    -0.270000       12.0110           0
      4436 MEMB     39       SAPI     H18X     HAL3     0.900000E-01   1.00800           0
      4437 MEMB     39       SAPI     H18Y     HAL3     0.900000E-01   1.00800           0
      4438 MEMB     39       SAPI     H18Z     HAL3     0.900000E-01   1.00800           0
      4439 MEMB     40       SOPE     N        NH3L    -0.300000       14.0070           0
      4440 MEMB     40       SOPE     HN1      HCL      0.330000       1.00800           0
      4441 MEMB     40       SOPE     HN2      HCL      0.330000       1.00800           0
      4442 MEMB     40       SOPE     HN3      HCL      0.330000       1.00800           0
      4443 MEMB     40       SOPE     C12      CTL2     0.130000       12.0110           0
      4444 MEMB     40       SOPE     H12A     HAL2     0.900000E-01   1.00800           0
      4445 MEMB     40       SOPE     H12B     HAL2     0.900000E-01   1.00800           0
      4446 MEMB     40       SOPE     C11      CTL2    -0.800000E-01   12.0110           0
      4447 MEMB     40       SOPE     H11A     HAL2     0.900000E-01   1.00800           0
      4448 MEMB     40       SOPE     H11B     HAL2     0.900000E-01   1.00800           0
      4449 MEMB     40       SOPE     P        PL        1.50000       30.9740           0
      4450 MEMB     40       SOPE     O13      O2L     -0.780000       15.9994           0
      4451 MEMB     40       SOPE     O14      O2L     -0.780000       15.9994           0
      4452 MEMB     40       SOPE     O12      OSLP    -0.570000       15.9994           0
      4453 MEMB     40       SOPE     O11      OSLP    -0.570000       15.9994           0
      4454 MEMB     40       SOPE     C1       CTL2    -0.800000E-01   12.0110           0
      4455 MEMB     40       SOPE     HA       HAL2     0.900000E-01   1.00800           0
      4456 MEMB     40       SOPE     HB       HAL2     0.900000E-01   1.00800           0
      4457 MEMB     40       SOPE     C2       CTL1     0.170000       12.0110           0
      4458 MEMB     40       SOPE     HS       HAL1     0.900000E-01   1.00800           0
      4459 MEMB     40       SOPE     O21      OSL     -0.490000       15.9994           0
      4460 MEMB     40       SOPE     C21      CL       0.900000       12.0110           0
      4461 MEMB     40       SOPE     O22      OBL     -0.630000       15.9994           0
      4462 MEMB     40       SOPE     C22      CTL2    -0.220000       12.0110           0
      4463 MEMB     40       SOPE     H2R      HAL2     0.900000E-01   1.00800           0
      4464 MEMB     40       SOPE     H2S      HAL2     0.900000E-01   1.00800           0
      4465 MEMB     40       SOPE     C3       CTL2     0.800000E-01   12.0110           0
      4466 MEMB     40       SOPE     HX       HAL2     0.900000E-01   1.00800           0
      4467 MEMB     40       SOPE     HY       HAL2     0.900000E-01   1.00800           0
      4468 MEMB     40       SOPE     O31      OSL     -0.490000       15.9994           0
      4469 MEMB     40       SOPE     C31      CL       0.900000       12.0110           0
      4470 MEMB     40       SOPE     O32      OBL     -0.630000       15.9994           0
      4471 MEMB     40       SOPE     C32      CTL2    -0.220000       12.0110           0
      4472 MEMB     40       SOPE     H2X      HAL2     0.900000E-01   1.00800           0
      4473 MEMB     40       SOPE     H2Y      HAL2     0.900000E-01   1.00800           0
      4474 MEMB     40       SOPE     C23      CTL2    -0.180000       12.0110           0
      4475 MEMB     40       SOPE     H3R      HAL2     0.900000E-01   1.00800           0
      4476 MEMB     40       SOPE     H3S      HAL2     0.900000E-01   1.00800           0
      4477 MEMB     40       SOPE     C24      CTL2    -0.180000       12.0110           0
      4478 MEMB     40       SOPE     H4R      HAL2     0.900000E-01   1.00800           0
      4479 MEMB     40       SOPE     H4S      HAL2     0.900000E-01   1.00800           0
      4480 MEMB     40       SOPE     C25      CTL2    -0.180000       12.0110           0
      4481 MEMB     40       SOPE     H5R      HAL2     0.900000E-01   1.00800           0
      4482 MEMB     40       SOPE     H5S      HAL2     0.900000E-01   1.00800           0
      4483 MEMB     40       SOPE     C26      CTL2    -0.180000       12.0110           0
      4484 MEMB     40       SOPE     H6R      HAL2     0.900000E-01   1.00800           0
      4485 MEMB     40       SOPE     H6S      HAL2     0.900000E-01   1.00800           0
      4486 MEMB     40       SOPE     C27      CTL2    -0.180000       12.0110           0
      4487 MEMB     40       SOPE     H7R      HAL2     0.900000E-01   1.00800           0
      4488 MEMB     40       SOPE     H7S      HAL2     0.900000E-01   1.00800           0
      4489 MEMB     40       SOPE     C28      CTL2    -0.180000       12.0110           0
      4490 MEMB     40       SOPE     H8R      HAL2     0.900000E-01   1.00800           0
      4491 MEMB     40       SOPE     H8S      HAL2     0.900000E-01   1.00800           0
      4492 MEMB     40       SOPE     C29      CEL1    -0.150000       12.0110           0
      4493 MEMB     40       SOPE     H91      HEL1     0.150000       1.00800           0
      4494 MEMB     40       SOPE     C210     CEL1    -0.150000       12.0110           0
      4495 MEMB     40       SOPE     H101     HEL1     0.150000       1.00800           0
      4496 MEMB     40       SOPE     C211     CTL2    -0.180000       12.0110           0
      4497 MEMB     40       SOPE     H11R     HAL2     0.900000E-01   1.00800           0
      4498 MEMB     40       SOPE     H11S     HAL2     0.900000E-01   1.00800           0
      4499 MEMB     40       SOPE     C212     CTL2    -0.180000       12.0110           0
      4500 MEMB     40       SOPE     H12R     HAL2     0.900000E-01   1.00800           0
      4501 MEMB     40       SOPE     H12S     HAL2     0.900000E-01   1.00800           0
      4502 MEMB     40       SOPE     C213     CTL2    -0.180000       12.0110           0
      4503 MEMB     40       SOPE     H13R     HAL2     0.900000E-01   1.00800           0
      4504 MEMB     40       SOPE     H13S     HAL2     0.900000E-01   1.00800           0
      4505 MEMB     40       SOPE     C214     CTL2    -0.180000       12.0110           0
      4506 MEMB     40       SOPE     H14R     HAL2     0.900000E-01   1.00800           0
      4507 MEMB     40       SOPE     H14S     HAL2     0.900000E-01   1.00800           0
      4508 MEMB     40       SOPE     C215     CTL2    -0.180000       12.0110           0
      4509 MEMB     40       SOPE     H15R     HAL2     0.900000E-01   1.00800           0
      4510 MEMB     40       SOPE     H15S     HAL2     0.900000E-01   1.00800           0
      4511 MEMB     40       SOPE     C216     CTL2    -0.180000       12.0110           0
      4512 MEMB     40       SOPE     H16R     HAL2     0.900000E-01   1.00800           0
      4513 MEMB     40       SOPE     H16S     HAL2     0.900000E-01   1.00800           0
      4514 MEMB     40       SOPE     C217     CTL2    -0.180000       12.0110           0
      4515 MEMB     40       SOPE     H17R     HAL2     0.900000E-01   1.00800           0
      4516 MEMB     40       SOPE     H17S     HAL2     0.900000E-01   1.00800           0
      4517 MEMB     40       SOPE     C218     CTL3    -0.270000       12.0110           0
      4518 MEMB     40       SOPE     H18R     HAL3     0.900000E-01   1.00800           0
      4519 MEMB     40       SOPE     H18S     HAL3     0.900000E-01   1.00800           0
      4520 MEMB     40       SOPE     H18T     HAL3     0.900000E-01   1.00800           0
      4521 MEMB     40       SOPE     C33      CTL2    -0.180000       12.0110           0
      4522 MEMB     40       SOPE     H3X      HAL2     0.900000E-01   1.00800           0
      4523 MEMB     40       SOPE     H3Y      HAL2     0.900000E-01   1.00800           0
      4524 MEMB     40       SOPE     C34      CTL2    -0.180000       12.0110           0
      4525 MEMB     40       SOPE     H4X      HAL2     0.900000E-01   1.00800           0
      4526 MEMB     40       SOPE     H4Y      HAL2     0.900000E-01   1.00800           0
      4527 MEMB     40       SOPE     C35      CTL2    -0.180000       12.0110           0
      4528 MEMB     40       SOPE     H5X      HAL2     0.900000E-01   1.00800           0
      4529 MEMB     40       SOPE     H5Y      HAL2     0.900000E-01   1.00800           0
      4530 MEMB     40       SOPE     C36      CTL2    -0.180000       12.0110           0
      4531 MEMB     40       SOPE     H6X      HAL2     0.900000E-01   1.00800           0
      4532 MEMB     40       SOPE     H6Y      HAL2     0.900000E-01   1.00800           0
      4533 MEMB     40       SOPE     C37      CTL2    -0.180000       12.0110           0
      4534 MEMB     40       SOPE     H7X      HAL2     0.900000E-01   1.00800           0
      4535 MEMB     40       SOPE     H7Y      HAL2     0.900000E-01   1.00800           0
      4536 MEMB     40       SOPE     C38      CTL2    -0.180000       12.0110           0
      4537 MEMB     40       SOPE     H8X      HAL2     0.900000E-01   1.00800           0
      4538 MEMB     40       SOPE     H8Y      HAL2     0.900000E-01   1.00800           0
      4539 MEMB     40       SOPE     C39      CTL2    -0.180000       12.0110           0
      4540 MEMB     40       SOPE     H9X      HAL2     0.900000E-01   1.00800           0
      4541 MEMB     40       SOPE     H9Y      HAL2     0.900000E-01   1.00800           0
      4542 MEMB     40       SOPE     C310     CTL2    -0.180000       12.0110           0
      4543 MEMB     40       SOPE     H10X     HAL2     0.900000E-01   1.00800           0
      4544 MEMB     40       SOPE     H10Y     HAL2     0.900000E-01   1.00800           0
      4545 MEMB     40       SOPE     C311     CTL2    -0.180000       12.0110           0
      4546 MEMB     40       SOPE     H11X     HAL2     0.900000E-01   1.00800           0
      4547 MEMB     40       SOPE     H11Y     HAL2     0.900000E-01   1.00800           0
      4548 MEMB     40       SOPE     C312     CTL2    -0.180000       12.0110           0
      4549 MEMB     40       SOPE     H12X     HAL2     0.900000E-01   1.00800           0
      4550 MEMB     40       SOPE     H12Y     HAL2     0.900000E-01   1.00800           0
      4551 MEMB     40       SOPE     C313     CTL2    -0.180000       12.0110           0
      4552 MEMB     40       SOPE     H13X     HAL2     0.900000E-01   1.00800           0
      4553 MEMB     40       SOPE     H13Y     HAL2     0.900000E-01   1.00800           0
      4554 MEMB     40       SOPE     C314     CTL2    -0.180000       12.0110           0
      4555 MEMB     40       SOPE     H14X     HAL2     0.900000E-01   1.00800           0
      4556 MEMB     40       SOPE     H14Y     HAL2     0.900000E-01   1.00800           0
      4557 MEMB     40       SOPE     C315     CTL2    -0.180000       12.0110           0
      4558 MEMB     40       SOPE     H15X     HAL2     0.900000E-01   1.00800           0
      4559 MEMB     40       SOPE     H15Y     HAL2     0.900000E-01   1.00800           0
      4560 MEMB     40       SOPE     C316     CTL2    -0.180000       12.0110           0
      4561 MEMB     40       SOPE     H16X     HAL2     0.900000E-01   1.00800           0
      4562 MEMB     40       SOPE     H16Y     HAL2     0.900000E-01   1.00800           0
      4563 MEMB     40       SOPE     C317     CTL2    -0.180000       12.0110           0
      4564 MEMB     40       SOPE     H17X     HAL2     0.900000E-01   1.00800           0
      4565 MEMB     40       SOPE     H17Y     HAL2     0.900000E-01   1.00800           0
      4566 MEMB     40       SOPE     C318     CTL3    -0.270000       12.0110           0
      4567 MEMB     40       SOPE     H18X     HAL3     0.900000E-01   1.00800           0
      4568 MEMB     40       SOPE     H18Y     HAL3     0.900000E-01   1.00800           0
      4569 MEMB     40       SOPE     H18Z     HAL3     0.900000E-01   1.00800           0
      4570 MEMB     41       SAPE     N        NH3L    -0.300000       14.0070           0
      4571 MEMB     41       SAPE     HN1      HCL      0.330000       1.00800           0
      4572 MEMB     41       SAPE     HN2      HCL      0.330000       1.00800           0
      4573 MEMB     41       SAPE     HN3      HCL      0.330000       1.00800           0
      4574 MEMB     41       SAPE     C12      CTL2     0.130000       12.0110           0
      4575 MEMB     41       SAPE     H12A     HAL2     0.900000E-01   1.00800           0
      4576 MEMB     41       SAPE     H12B     HAL2     0.900000E-01   1.00800           0
      4577 MEMB     41       SAPE     C11      CTL2    -0.800000E-01   12.0110           0
      4578 MEMB     41       SAPE     H11A     HAL2     0.900000E-01   1.00800           0
      4579 MEMB     41       SAPE     H11B     HAL2     0.900000E-01   1.00800           0
      4580 MEMB     41       SAPE     P        PL        1.50000       30.9740           0
      4581 MEMB     41       SAPE     O13      O2L     -0.780000       15.9994           0
      4582 MEMB     41       SAPE     O14      O2L     -0.780000       15.9994           0
      4583 MEMB     41       SAPE     O12      OSLP    -0.570000       15.9994           0
      4584 MEMB     41       SAPE     O11      OSLP    -0.570000       15.9994           0
      4585 MEMB     41       SAPE     C1       CTL2    -0.800000E-01   12.0110           0
      4586 MEMB     41       SAPE     HA       HAL2     0.900000E-01   1.00800           0
      4587 MEMB     41       SAPE     HB       HAL2     0.900000E-01   1.00800           0
      4588 MEMB     41       SAPE     C2       CTL1     0.170000       12.0110           0
      4589 MEMB     41       SAPE     HS       HAL1     0.900000E-01   1.00800           0
      4590 MEMB     41       SAPE     O21      OSL     -0.490000       15.9994           0
      4591 MEMB     41       SAPE     C21      CL       0.900000       12.0110           0
      4592 MEMB     41       SAPE     O22      OBL     -0.630000       15.9994           0
      4593 MEMB     41       SAPE     C22      CTL2    -0.220000       12.0110           0
      4594 MEMB     41       SAPE     H2R      HAL2     0.900000E-01   1.00800           0
      4595 MEMB     41       SAPE     H2S      HAL2     0.900000E-01   1.00800           0
      4596 MEMB     41       SAPE     C3       CTL2     0.800000E-01   12.0110           0
      4597 MEMB     41       SAPE     HX       HAL2     0.900000E-01   1.00800           0
      4598 MEMB     41       SAPE     HY       HAL2     0.900000E-01   1.00800           0
      4599 MEMB     41       SAPE     O31      OSL     -0.490000       15.9994           0
      4600 MEMB     41       SAPE     C31      CL       0.900000       12.0110           0
      4601 MEMB     41       SAPE     O32      OBL     -0.630000       15.9994           0
      4602 MEMB     41       SAPE     C32      CTL2    -0.220000       12.0110           0
      4603 MEMB     41       SAPE     H2X      HAL2     0.900000E-01   1.00800           0
      4604 MEMB     41       SAPE     H2Y      HAL2     0.900000E-01   1.00800           0
      4605 MEMB     41       SAPE     C23      CTL2    -0.180000       12.0110           0
      4606 MEMB     41       SAPE     H3R      HAL2     0.900000E-01   1.00800           0
      4607 MEMB     41       SAPE     H3S      HAL2     0.900000E-01   1.00800           0
      4608 MEMB     41       SAPE     C24      CTL2    -0.180000       12.0110           0
      4609 MEMB     41       SAPE     H4R      HAL2     0.900000E-01   1.00800           0
      4610 MEMB     41       SAPE     H4S      HAL2     0.900000E-01   1.00800           0
      4611 MEMB     41       SAPE     C25      CEL1    -0.150000       12.0110           0
      4612 MEMB     41       SAPE     H5R      HEL1     0.150000       1.00800           0
      4613 MEMB     41       SAPE     C26      CEL1    -0.150000       12.0110           0
      4614 MEMB     41       SAPE     H6R      HEL1     0.150000       1.00800           0
      4615 MEMB     41       SAPE     C27      CTL2    -0.180000       12.0110           0
      4616 MEMB     41       SAPE     H7R      HAL2     0.900000E-01   1.00800           0
      4617 MEMB     41       SAPE     H7S      HAL2     0.900000E-01   1.00800           0
      4618 MEMB     41       SAPE     C28      CEL1    -0.150000       12.0110           0
      4619 MEMB     41       SAPE     H8R      HEL1     0.150000       1.00800           0
      4620 MEMB     41       SAPE     C29      CEL1    -0.150000       12.0110           0
      4621 MEMB     41       SAPE     H9R      HEL1     0.150000       1.00800           0
      4622 MEMB     41       SAPE     C210     CTL2    -0.180000       12.0110           0
      4623 MEMB     41       SAPE     H10R     HAL2     0.900000E-01   1.00800           0
      4624 MEMB     41       SAPE     H10S     HAL2     0.900000E-01   1.00800           0
      4625 MEMB     41       SAPE     C211     CEL1    -0.150000       12.0110           0
      4626 MEMB     41       SAPE     H11R     HEL1     0.150000       1.00800           0
      4627 MEMB     41       SAPE     C212     CEL1    -0.150000       12.0110           0
      4628 MEMB     41       SAPE     H12R     HEL1     0.150000       1.00800           0
      4629 MEMB     41       SAPE     C213     CTL2    -0.180000       12.0110           0
      4630 MEMB     41       SAPE     H13R     HAL2     0.900000E-01   1.00800           0
      4631 MEMB     41       SAPE     H13S     HAL2     0.900000E-01   1.00800           0
      4632 MEMB     41       SAPE     C214     CEL1    -0.150000       12.0110           0
      4633 MEMB     41       SAPE     H14R     HEL1     0.150000       1.00800           0
      4634 MEMB     41       SAPE     C215     CEL1    -0.150000       12.0110           0
      4635 MEMB     41       SAPE     H15R     HEL1     0.150000       1.00800           0
      4636 MEMB     41       SAPE     C216     CTL2    -0.180000       12.0110           0
      4637 MEMB     41       SAPE     H16R     HAL2     0.900000E-01   1.00800           0
      4638 MEMB     41       SAPE     H16S     HAL2     0.900000E-01   1.00800           0
      4639 MEMB     41       SAPE     C217     CTL2    -0.180000       12.0110           0
      4640 MEMB     41       SAPE     H17R     HAL2     0.900000E-01   1.00800           0
      4641 MEMB     41       SAPE     H17S     HAL2     0.900000E-01   1.00800           0
      4642 MEMB     41       SAPE     C218     CTL2    -0.180000       12.0110           0
      4643 MEMB     41       SAPE     H18R     HAL2     0.900000E-01   1.00800           0
      4644 MEMB     41       SAPE     H18S     HAL2     0.900000E-01   1.00800           0
      4645 MEMB     41       SAPE     C219     CTL2    -0.180000       12.0110           0
      4646 MEMB     41       SAPE     H19R     HAL2     0.900000E-01   1.00800           0
      4647 MEMB     41       SAPE     H19S     HAL2     0.900000E-01   1.00800           0
      4648 MEMB     41       SAPE     C220     CTL3    -0.270000       12.0110           0
      4649 MEMB     41       SAPE     H20R     HAL3     0.900000E-01   1.00800           0
      4650 MEMB     41       SAPE     H20S     HAL3     0.900000E-01   1.00800           0
      4651 MEMB     41       SAPE     H20T     HAL3     0.900000E-01   1.00800           0
      4652 MEMB     41       SAPE     C33      CTL2    -0.180000       12.0110           0
      4653 MEMB     41       SAPE     H3X      HAL2     0.900000E-01   1.00800           0
      4654 MEMB     41       SAPE     H3Y      HAL2     0.900000E-01   1.00800           0
      4655 MEMB     41       SAPE     C34      CTL2    -0.180000       12.0110           0
      4656 MEMB     41       SAPE     H4X      HAL2     0.900000E-01   1.00800           0
      4657 MEMB     41       SAPE     H4Y      HAL2     0.900000E-01   1.00800           0
      4658 MEMB     41       SAPE     C35      CTL2    -0.180000       12.0110           0
      4659 MEMB     41       SAPE     H5X      HAL2     0.900000E-01   1.00800           0
      4660 MEMB     41       SAPE     H5Y      HAL2     0.900000E-01   1.00800           0
      4661 MEMB     41       SAPE     C36      CTL2    -0.180000       12.0110           0
      4662 MEMB     41       SAPE     H6X      HAL2     0.900000E-01   1.00800           0
      4663 MEMB     41       SAPE     H6Y      HAL2     0.900000E-01   1.00800           0
      4664 MEMB     41       SAPE     C37      CTL2    -0.180000       12.0110           0
      4665 MEMB     41       SAPE     H7X      HAL2     0.900000E-01   1.00800           0
      4666 MEMB     41       SAPE     H7Y      HAL2     0.900000E-01   1.00800           0
      4667 MEMB     41       SAPE     C38      CTL2    -0.180000       12.0110           0
      4668 MEMB     41       SAPE     H8X      HAL2     0.900000E-01   1.00800           0
      4669 MEMB     41       SAPE     H8Y      HAL2     0.900000E-01   1.00800           0
      4670 MEMB     41       SAPE     C39      CTL2    -0.180000       12.0110           0
      4671 MEMB     41       SAPE     H9X      HAL2     0.900000E-01   1.00800           0
      4672 MEMB     41       SAPE     H9Y      HAL2     0.900000E-01   1.00800           0
      4673 MEMB     41       SAPE     C310     CTL2    -0.180000       12.0110           0
      4674 MEMB     41       SAPE     H10X     HAL2     0.900000E-01   1.00800           0
      4675 MEMB     41       SAPE     H10Y     HAL2     0.900000E-01   1.00800           0
      4676 MEMB     41       SAPE     C311     CTL2    -0.180000       12.0110           0
      4677 MEMB     41       SAPE     H11X     HAL2     0.900000E-01   1.00800           0
      4678 MEMB     41       SAPE     H11Y     HAL2     0.900000E-01   1.00800           0
      4679 MEMB     41       SAPE     C312     CTL2    -0.180000       12.0110           0
      4680 MEMB     41       SAPE     H12X     HAL2     0.900000E-01   1.00800           0
      4681 MEMB     41       SAPE     H12Y     HAL2     0.900000E-01   1.00800           0
      4682 MEMB     41       SAPE     C313     CTL2    -0.180000       12.0110           0
      4683 MEMB     41       SAPE     H13X     HAL2     0.900000E-01   1.00800           0
      4684 MEMB     41       SAPE     H13Y     HAL2     0.900000E-01   1.00800           0
      4685 MEMB     41       SAPE     C314     CTL2    -0.180000       12.0110           0
      4686 MEMB     41       SAPE     H14X     HAL2     0.900000E-01   1.00800           0
      4687 MEMB     41       SAPE     H14Y     HAL2     0.900000E-01   1.00800           0
      4688 MEMB     41       SAPE     C315     CTL2    -0.180000       12.0110           0
      4689 MEMB     41       SAPE     H15X     HAL2     0.900000E-01   1.00800           0
      4690 MEMB     41       SAPE     H15Y     HAL2     0.900000E-01   1.00800           0
      4691 MEMB     41       SAPE     C316     CTL2    -0.180000       12.0110           0
      4692 MEMB     41       SAPE     H16X     HAL2     0.900000E-01   1.00800           0
      4693 MEMB     41       SAPE     H16Y     HAL2     0.900000E-01   1.00800           0
      4694 MEMB     41       SAPE     C317     CTL2    -0.180000       12.0110           0
      4695 MEMB     41       SAPE     H17X     HAL2     0.900000E-01   1.00800           0
      4696 MEMB     41       SAPE     H17Y     HAL2     0.900000E-01   1.00800           0
      4697 MEMB     41       SAPE     C318     CTL3    -0.270000       12.0110           0
      4698 MEMB     41       SAPE     H18X     HAL3     0.900000E-01   1.00800           0
      4699 MEMB     41       SAPE     H18Y     HAL3     0.900000E-01   1.00800           0
      4700 MEMB     41       SAPE     H18Z     HAL3     0.900000E-01   1.00800           0
      4701 MEMB     42       OSM      N        NTL     -0.600000       14.0070           0
      4702 MEMB     42       OSM      C15      CTL5    -0.350000       12.0110           0
      4703 MEMB     42       OSM      H15A     HL       0.250000       1.00800           0
      4704 MEMB     42       OSM      H15B     HL       0.250000       1.00800           0
      4705 MEMB     42       OSM      H15C     HL       0.250000       1.00800           0
      4706 MEMB     42       OSM      C14      CTL5    -0.350000       12.0110           0
      4707 MEMB     42       OSM      H14A     HL       0.250000       1.00800           0
      4708 MEMB     42       OSM      H14B     HL       0.250000       1.00800           0
      4709 MEMB     42       OSM      H14C     HL       0.250000       1.00800           0
      4710 MEMB     42       OSM      C13      CTL5    -0.350000       12.0110           0
      4711 MEMB     42       OSM      H13A     HL       0.250000       1.00800           0
      4712 MEMB     42       OSM      H13B     HL       0.250000       1.00800           0
      4713 MEMB     42       OSM      H13C     HL       0.250000       1.00800           0
      4714 MEMB     42       OSM      C12      CTL2    -0.100000       12.0110           0
      4715 MEMB     42       OSM      H12A     HL       0.250000       1.00800           0
      4716 MEMB     42       OSM      H12B     HL       0.250000       1.00800           0
      4717 MEMB     42       OSM      C11      CTL2    -0.800000E-01   12.0110           0
      4718 MEMB     42       OSM      H11A     HAL2     0.900000E-01   1.00800           0
      4719 MEMB     42       OSM      H11B     HAL2     0.900000E-01   1.00800           0
      4720 MEMB     42       OSM      P        PL        1.50000       30.9740           0
      4721 MEMB     42       OSM      O13      O2L     -0.780000       15.9994           0
      4722 MEMB     42       OSM      O14      O2L     -0.780000       15.9994           0
      4723 MEMB     42       OSM      O11      OSLP    -0.570000       15.9994           0
      4724 MEMB     42       OSM      O12      OSLP    -0.570000       15.9994           0
      4725 MEMB     42       OSM      C1S      CTL2    -0.800000E-01   12.0110           0
      4726 MEMB     42       OSM      H1S      HAL2     0.900000E-01   1.00800           0
      4727 MEMB     42       OSM      H1T      HAL2     0.900000E-01   1.00800           0
      4728 MEMB     42       OSM      NF       NHL     -0.700000       14.0070           0
      4729 MEMB     42       OSM      HNF      H        0.350000       1.00800           0
      4730 MEMB     42       OSM      C2S      CTL1     0.300000       12.0110           0
      4731 MEMB     42       OSM      H2S      HAL1     0.500000E-01   1.00800           0
      4732 MEMB     42       OSM      C3S      CTO1     0.500000       12.0110           0
      4733 MEMB     42       OSM      H3S      HAL1    -0.110000       1.00800           0
      4734 MEMB     42       OSM      O3       OHL     -0.690000       15.9994           0
      4735 MEMB     42       OSM      HO3      HOL      0.300000       1.00800           0
      4736 MEMB     42       OSM      C4S      CEL3    -0.150000       12.0110           0
      4737 MEMB     42       OSM      H4S      HEL1     0.150000       1.00800           0
      4738 MEMB     42       OSM      C5S      CEL3    -0.150000       12.0110           0
      4739 MEMB     42       OSM      H5S      HEL1     0.150000       1.00800           0
      4740 MEMB     42       OSM      C6S      CTL2    -0.180000       12.0110           0
      4741 MEMB     42       OSM      H6S      HAL2     0.900000E-01   1.00800           0
      4742 MEMB     42       OSM      H6T      HAL2     0.900000E-01   1.00800           0
      4743 MEMB     42       OSM      C7S      CTL2    -0.180000       12.0110           0
      4744 MEMB     42       OSM      H7S      HAL2     0.900000E-01   1.00800           0
      4745 MEMB     42       OSM      H7T      HAL2     0.900000E-01   1.00800           0
      4746 MEMB     42       OSM      C8S      CTL2    -0.180000       12.0110           0
      4747 MEMB     42       OSM      H8S      HAL2     0.900000E-01   1.00800           0
      4748 MEMB     42       OSM      H8T      HAL2     0.900000E-01   1.00800           0
      4749 MEMB     42       OSM      C9S      CTL2    -0.180000       12.0110           0
      4750 MEMB     42       OSM      H9S      HAL2     0.900000E-01   1.00800           0
      4751 MEMB     42       OSM      H9T      HAL2     0.900000E-01   1.00800           0
      4752 MEMB     42       OSM      C10S     CTL2    -0.180000       12.0110           0
      4753 MEMB     42       OSM      H10S     HAL2     0.900000E-01   1.00800           0
      4754 MEMB     42       OSM      H10T     HAL2     0.900000E-01   1.00800           0
      4755 MEMB     42       OSM      C11S     CTL2    -0.180000       12.0110           0
      4756 MEMB     42       OSM      H11S     HAL2     0.900000E-01   1.00800           0
      4757 MEMB     42       OSM      H11T     HAL2     0.900000E-01   1.00800           0
      4758 MEMB     42       OSM      C12S     CTL2    -0.180000       12.0110           0
      4759 MEMB     42       OSM      H12S     HAL2     0.900000E-01   1.00800           0
      4760 MEMB     42       OSM      H12T     HAL2     0.900000E-01   1.00800           0
      4761 MEMB     42       OSM      C13S     CTL2    -0.180000       12.0110           0
      4762 MEMB     42       OSM      H13S     HAL2     0.900000E-01   1.00800           0
      4763 MEMB     42       OSM      H13T     HAL2     0.900000E-01   1.00800           0
      4764 MEMB     42       OSM      C14S     CTL2    -0.180000       12.0110           0
      4765 MEMB     42       OSM      H14S     HAL2     0.900000E-01   1.00800           0
      4766 MEMB     42       OSM      H14T     HAL2     0.900000E-01   1.00800           0
      4767 MEMB     42       OSM      C15S     CTL2    -0.180000       12.0110           0
      4768 MEMB     42       OSM      H15S     HAL2     0.900000E-01   1.00800           0
      4769 MEMB     42       OSM      H15T     HAL2     0.900000E-01   1.00800           0
      4770 MEMB     42       OSM      C16S     CTL2    -0.180000       12.0110           0
      4771 MEMB     42       OSM      H16S     HAL2     0.900000E-01   1.00800           0
      4772 MEMB     42       OSM      H16T     HAL2     0.900000E-01   1.00800           0
      4773 MEMB     42       OSM      C17S     CTL2    -0.180000       12.0110           0
      4774 MEMB     42       OSM      H17S     HAL2     0.900000E-01   1.00800           0
      4775 MEMB     42       OSM      H17T     HAL2     0.900000E-01   1.00800           0
      4776 MEMB     42       OSM      C18S     CTL3    -0.270000       12.0110           0
      4777 MEMB     42       OSM      H18S     HAL3     0.900000E-01   1.00800           0
      4778 MEMB     42       OSM      H18T     HAL3     0.900000E-01   1.00800           0
      4779 MEMB     42       OSM      H18U     HAL3     0.900000E-01   1.00800           0
      4780 MEMB     42       OSM      C1F      C        0.550000       12.0110           0
      4781 MEMB     42       OSM      OF       O       -0.600000       15.9994           0
      4782 MEMB     42       OSM      C2F      CTL2    -0.700000E-01   12.0110           0
      4783 MEMB     42       OSM      H2F      HAL2     0.600000E-01   1.00800           0
      4784 MEMB     42       OSM      H2G      HAL2     0.600000E-01   1.00800           0
      4785 MEMB     42       OSM      C3F      CTL2    -0.180000       12.0110           0
      4786 MEMB     42       OSM      H3F      HAL2     0.900000E-01   1.00800           0
      4787 MEMB     42       OSM      H3G      HAL2     0.900000E-01   1.00800           0
      4788 MEMB     42       OSM      C4F      CTL2    -0.180000       12.0110           0
      4789 MEMB     42       OSM      H4F      HAL2     0.900000E-01   1.00800           0
      4790 MEMB     42       OSM      H4G      HAL2     0.900000E-01   1.00800           0
      4791 MEMB     42       OSM      C5F      CTL2    -0.180000       12.0110           0
      4792 MEMB     42       OSM      H5F      HAL2     0.900000E-01   1.00800           0
      4793 MEMB     42       OSM      H5G      HAL2     0.900000E-01   1.00800           0
      4794 MEMB     42       OSM      C6F      CTL2    -0.180000       12.0110           0
      4795 MEMB     42       OSM      H6F      HAL2     0.900000E-01   1.00800           0
      4796 MEMB     42       OSM      H6G      HAL2     0.900000E-01   1.00800           0
      4797 MEMB     42       OSM      C7F      CTL2    -0.180000       12.0110           0
      4798 MEMB     42       OSM      H7F      HAL2     0.900000E-01   1.00800           0
      4799 MEMB     42       OSM      H7G      HAL2     0.900000E-01   1.00800           0
      4800 MEMB     42       OSM      C8F      CTL2    -0.180000       12.0110           0
      4801 MEMB     42       OSM      H8F      HAL2     0.900000E-01   1.00800           0
      4802 MEMB     42       OSM      H8G      HAL2     0.900000E-01   1.00800           0
      4803 MEMB     42       OSM      C9F      CEL1    -0.150000       12.0110           0
      4804 MEMB     42       OSM      H9F      HEL1     0.150000       1.00800           0
      4805 MEMB     42       OSM      C10F     CEL1    -0.150000       12.0110           0
      4806 MEMB     42       OSM      H10F     HEL1     0.150000       1.00800           0
      4807 MEMB     42       OSM      C11F     CTL2    -0.180000       12.0110           0
      4808 MEMB     42       OSM      H11F     HAL2     0.900000E-01   1.00800           0
      4809 MEMB     42       OSM      H11G     HAL2     0.900000E-01   1.00800           0
      4810 MEMB     42       OSM      C12F     CTL2    -0.180000       12.0110           0
      4811 MEMB     42       OSM      H12F     HAL2     0.900000E-01   1.00800           0
      4812 MEMB     42       OSM      H12G     HAL2     0.900000E-01   1.00800           0
      4813 MEMB     42       OSM      C13F     CTL2    -0.180000       12.0110           0
      4814 MEMB     42       OSM      H13F     HAL2     0.900000E-01   1.00800           0
      4815 MEMB     42       OSM      H13G     HAL2     0.900000E-01   1.00800           0
      4816 MEMB     42       OSM      C14F     CTL2    -0.180000       12.0110           0
      4817 MEMB     42       OSM      H14F     HAL2     0.900000E-01   1.00800           0
      4818 MEMB     42       OSM      H14G     HAL2     0.900000E-01   1.00800           0
      4819 MEMB     42       OSM      C15F     CTL2    -0.180000       12.0110           0
      4820 MEMB     42       OSM      H15F     HAL2     0.900000E-01   1.00800           0
      4821 MEMB     42       OSM      H15G     HAL2     0.900000E-01   1.00800           0
      4822 MEMB     42       OSM      C16F     CTL2    -0.180000       12.0110           0
      4823 MEMB     42       OSM      H16F     HAL2     0.900000E-01   1.00800           0
      4824 MEMB     42       OSM      H16G     HAL2     0.900000E-01   1.00800           0
      4825 MEMB     42       OSM      C17F     CTL2    -0.180000       12.0110           0
      4826 MEMB     42       OSM      H17F     HAL2     0.900000E-01   1.00800           0
      4827 MEMB     42       OSM      H17G     HAL2     0.900000E-01   1.00800           0
      4828 MEMB     42       OSM      C18F     CTL3    -0.270000       12.0110           0
      4829 MEMB     42       OSM      H18F     HAL3     0.900000E-01   1.00800           0
      4830 MEMB     42       OSM      H18G     HAL3     0.900000E-01   1.00800           0
      4831 MEMB     42       OSM      H18H     HAL3     0.900000E-01   1.00800           0
      4832 MEMB     43       SAPE     N        NH3L    -0.300000       14.0070           0
      4833 MEMB     43       SAPE     HN1      HCL      0.330000       1.00800           0
      4834 MEMB     43       SAPE     HN2      HCL      0.330000       1.00800           0
      4835 MEMB     43       SAPE     HN3      HCL      0.330000       1.00800           0
      4836 MEMB     43       SAPE     C12      CTL2     0.130000       12.0110           0
      4837 MEMB     43       SAPE     H12A     HAL2     0.900000E-01   1.00800           0
      4838 MEMB     43       SAPE     H12B     HAL2     0.900000E-01   1.00800           0
      4839 MEMB     43       SAPE     C11      CTL2    -0.800000E-01   12.0110           0
      4840 MEMB     43       SAPE     H11A     HAL2     0.900000E-01   1.00800           0
      4841 MEMB     43       SAPE     H11B     HAL2     0.900000E-01   1.00800           0
      4842 MEMB     43       SAPE     P        PL        1.50000       30.9740           0
      4843 MEMB     43       SAPE     O13      O2L     -0.780000       15.9994           0
      4844 MEMB     43       SAPE     O14      O2L     -0.780000       15.9994           0
      4845 MEMB     43       SAPE     O12      OSLP    -0.570000       15.9994           0
      4846 MEMB     43       SAPE     O11      OSLP    -0.570000       15.9994           0
      4847 MEMB     43       SAPE     C1       CTL2    -0.800000E-01   12.0110           0
      4848 MEMB     43       SAPE     HA       HAL2     0.900000E-01   1.00800           0
      4849 MEMB     43       SAPE     HB       HAL2     0.900000E-01   1.00800           0
      4850 MEMB     43       SAPE     C2       CTL1     0.170000       12.0110           0
      4851 MEMB     43       SAPE     HS       HAL1     0.900000E-01   1.00800           0
      4852 MEMB     43       SAPE     O21      OSL     -0.490000       15.9994           0
      4853 MEMB     43       SAPE     C21      CL       0.900000       12.0110           0
      4854 MEMB     43       SAPE     O22      OBL     -0.630000       15.9994           0
      4855 MEMB     43       SAPE     C22      CTL2    -0.220000       12.0110           0
      4856 MEMB     43       SAPE     H2R      HAL2     0.900000E-01   1.00800           0
      4857 MEMB     43       SAPE     H2S      HAL2     0.900000E-01   1.00800           0
      4858 MEMB     43       SAPE     C3       CTL2     0.800000E-01   12.0110           0
      4859 MEMB     43       SAPE     HX       HAL2     0.900000E-01   1.00800           0
      4860 MEMB     43       SAPE     HY       HAL2     0.900000E-01   1.00800           0
      4861 MEMB     43       SAPE     O31      OSL     -0.490000       15.9994           0
      4862 MEMB     43       SAPE     C31      CL       0.900000       12.0110           0
      4863 MEMB     43       SAPE     O32      OBL     -0.630000       15.9994           0
      4864 MEMB     43       SAPE     C32      CTL2    -0.220000       12.0110           0
      4865 MEMB     43       SAPE     H2X      HAL2     0.900000E-01   1.00800           0
      4866 MEMB     43       SAPE     H2Y      HAL2     0.900000E-01   1.00800           0
      4867 MEMB     43       SAPE     C23      CTL2    -0.180000       12.0110           0
      4868 MEMB     43       SAPE     H3R      HAL2     0.900000E-01   1.00800           0
      4869 MEMB     43       SAPE     H3S      HAL2     0.900000E-01   1.00800           0
      4870 MEMB     43       SAPE     C24      CTL2    -0.180000       12.0110           0
      4871 MEMB     43       SAPE     H4R      HAL2     0.900000E-01   1.00800           0
      4872 MEMB     43       SAPE     H4S      HAL2     0.900000E-01   1.00800           0
      4873 MEMB     43       SAPE     C25      CEL1    -0.150000       12.0110           0
      4874 MEMB     43       SAPE     H5R      HEL1     0.150000       1.00800           0
      4875 MEMB     43       SAPE     C26      CEL1    -0.150000       12.0110           0
      4876 MEMB     43       SAPE     H6R      HEL1     0.150000       1.00800           0
      4877 MEMB     43       SAPE     C27      CTL2    -0.180000       12.0110           0
      4878 MEMB     43       SAPE     H7R      HAL2     0.900000E-01   1.00800           0
      4879 MEMB     43       SAPE     H7S      HAL2     0.900000E-01   1.00800           0
      4880 MEMB     43       SAPE     C28      CEL1    -0.150000       12.0110           0
      4881 MEMB     43       SAPE     H8R      HEL1     0.150000       1.00800           0
      4882 MEMB     43       SAPE     C29      CEL1    -0.150000       12.0110           0
      4883 MEMB     43       SAPE     H9R      HEL1     0.150000       1.00800           0
      4884 MEMB     43       SAPE     C210     CTL2    -0.180000       12.0110           0
      4885 MEMB     43       SAPE     H10R     HAL2     0.900000E-01   1.00800           0
      4886 MEMB     43       SAPE     H10S     HAL2     0.900000E-01   1.00800           0
      4887 MEMB     43       SAPE     C211     CEL1    -0.150000       12.0110           0
      4888 MEMB     43       SAPE     H11R     HEL1     0.150000       1.00800           0
      4889 MEMB     43       SAPE     C212     CEL1    -0.150000       12.0110           0
      4890 MEMB     43       SAPE     H12R     HEL1     0.150000       1.00800           0
      4891 MEMB     43       SAPE     C213     CTL2    -0.180000       12.0110           0
      4892 MEMB     43       SAPE     H13R     HAL2     0.900000E-01   1.00800           0
      4893 MEMB     43       SAPE     H13S     HAL2     0.900000E-01   1.00800           0
      4894 MEMB     43       SAPE     C214     CEL1    -0.150000       12.0110           0
      4895 MEMB     43       SAPE     H14R     HEL1     0.150000       1.00800           0
      4896 MEMB     43       SAPE     C215     CEL1    -0.150000       12.0110           0
      4897 MEMB     43       SAPE     H15R     HEL1     0.150000       1.00800           0
      4898 MEMB     43       SAPE     C216     CTL2    -0.180000       12.0110           0
      4899 MEMB     43       SAPE     H16R     HAL2     0.900000E-01   1.00800           0
      4900 MEMB     43       SAPE     H16S     HAL2     0.900000E-01   1.00800           0
      4901 MEMB     43       SAPE     C217     CTL2    -0.180000       12.0110           0
      4902 MEMB     43       SAPE     H17R     HAL2     0.900000E-01   1.00800           0
      4903 MEMB     43       SAPE     H17S     HAL2     0.900000E-01   1.00800           0
      4904 MEMB     43       SAPE     C218     CTL2    -0.180000       12.0110           0
      4905 MEMB     43       SAPE     H18R     HAL2     0.900000E-01   1.00800           0
      4906 MEMB     43       SAPE     H18S     HAL2     0.900000E-01   1.00800           0
      4907 MEMB     43       SAPE     C219     CTL2    -0.180000       12.0110           0
      4908 MEMB     43       SAPE     H19R     HAL2     0.900000E-01   1.00800           0
      4909 MEMB     43       SAPE     H19S     HAL2     0.900000E-01   1.00800           0
      4910 MEMB     43       SAPE     C220     CTL3    -0.270000       12.0110           0
      4911 MEMB     43       SAPE     H20R     HAL3     0.900000E-01   1.00800           0
      4912 MEMB     43       SAPE     H20S     HAL3     0.900000E-01   1.00800           0
      4913 MEMB     43       SAPE     H20T     HAL3     0.900000E-01   1.00800           0
      4914 MEMB     43       SAPE     C33      CTL2    -0.180000       12.0110           0
      4915 MEMB     43       SAPE     H3X      HAL2     0.900000E-01   1.00800           0
      4916 MEMB     43       SAPE     H3Y      HAL2     0.900000E-01   1.00800           0
      4917 MEMB     43       SAPE     C34      CTL2    -0.180000       12.0110           0
      4918 MEMB     43       SAPE     H4X      HAL2     0.900000E-01   1.00800           0
      4919 MEMB     43       SAPE     H4Y      HAL2     0.900000E-01   1.00800           0
      4920 MEMB     43       SAPE     C35      CTL2    -0.180000       12.0110           0
      4921 MEMB     43       SAPE     H5X      HAL2     0.900000E-01   1.00800           0
      4922 MEMB     43       SAPE     H5Y      HAL2     0.900000E-01   1.00800           0
      4923 MEMB     43       SAPE     C36      CTL2    -0.180000       12.0110           0
      4924 MEMB     43       SAPE     H6X      HAL2     0.900000E-01   1.00800           0
      4925 MEMB     43       SAPE     H6Y      HAL2     0.900000E-01   1.00800           0
      4926 MEMB     43       SAPE     C37      CTL2    -0.180000       12.0110           0
      4927 MEMB     43       SAPE     H7X      HAL2     0.900000E-01   1.00800           0
      4928 MEMB     43       SAPE     H7Y      HAL2     0.900000E-01   1.00800           0
      4929 MEMB     43       SAPE     C38      CTL2    -0.180000       12.0110           0
      4930 MEMB     43       SAPE     H8X      HAL2     0.900000E-01   1.00800           0
      4931 MEMB     43       SAPE     H8Y      HAL2     0.900000E-01   1.00800           0
      4932 MEMB     43       SAPE     C39      CTL2    -0.180000       12.0110           0
      4933 MEMB     43       SAPE     H9X      HAL2     0.900000E-01   1.00800           0
      4934 MEMB     43       SAPE     H9Y      HAL2     0.900000E-01   1.00800           0
      4935 MEMB     43       SAPE     C310     CTL2    -0.180000       12.0110           0
      4936 MEMB     43       SAPE     H10X     HAL2     0.900000E-01   1.00800           0
      4937 MEMB     43       SAPE     H10Y     HAL2     0.900000E-01   1.00800           0
      4938 MEMB     43       SAPE     C311     CTL2    -0.180000       12.0110           0
      4939 MEMB     43       SAPE     H11X     HAL2     0.900000E-01   1.00800           0
      4940 MEMB     43       SAPE     H11Y     HAL2     0.900000E-01   1.00800           0
      4941 MEMB     43       SAPE     C312     CTL2    -0.180000       12.0110           0
      4942 MEMB     43       SAPE     H12X     HAL2     0.900000E-01   1.00800           0
      4943 MEMB     43       SAPE     H12Y     HAL2     0.900000E-01   1.00800           0
      4944 MEMB     43       SAPE     C313     CTL2    -0.180000       12.0110           0
      4945 MEMB     43       SAPE     H13X     HAL2     0.900000E-01   1.00800           0
      4946 MEMB     43       SAPE     H13Y     HAL2     0.900000E-01   1.00800           0
      4947 MEMB     43       SAPE     C314     CTL2    -0.180000       12.0110           0
      4948 MEMB     43       SAPE     H14X     HAL2     0.900000E-01   1.00800           0
      4949 MEMB     43       SAPE     H14Y     HAL2     0.900000E-01   1.00800           0
      4950 MEMB     43       SAPE     C315     CTL2    -0.180000       12.0110           0
      4951 MEMB     43       SAPE     H15X     HAL2     0.900000E-01   1.00800           0
      4952 MEMB     43       SAPE     H15Y     HAL2     0.900000E-01   1.00800           0
      4953 MEMB     43       SAPE     C316     CTL2    -0.180000       12.0110           0
      4954 MEMB     43       SAPE     H16X     HAL2     0.900000E-01   1.00800           0
      4955 MEMB     43       SAPE     H16Y     HAL2     0.900000E-01   1.00800           0
      4956 MEMB     43       SAPE     C317     CTL2    -0.180000       12.0110           0
      4957 MEMB     43       SAPE     H17X     HAL2     0.900000E-01   1.00800           0
      4958 MEMB     43       SAPE     H17Y     HAL2     0.900000E-01   1.00800           0
      4959 MEMB     43       SAPE     C318     CTL3    -0.270000       12.0110           0
      4960 MEMB     43       SAPE     H18X     HAL3     0.900000E-01   1.00800           0
      4961 MEMB     43       SAPE     H18Y     HAL3     0.900000E-01   1.00800           0
      4962 MEMB     43       SAPE     H18Z     HAL3     0.900000E-01   1.00800           0
      4963 MEMB     44       OSM      N        NTL     -0.600000       14.0070           0
      4964 MEMB     44       OSM      C15      CTL5    -0.350000       12.0110           0
      4965 MEMB     44       OSM      H15A     HL       0.250000       1.00800           0
      4966 MEMB     44       OSM      H15B     HL       0.250000       1.00800           0
      4967 MEMB     44       OSM      H15C     HL       0.250000       1.00800           0
      4968 MEMB     44       OSM      C14      CTL5    -0.350000       12.0110           0
      4969 MEMB     44       OSM      H14A     HL       0.250000       1.00800           0
      4970 MEMB     44       OSM      H14B     HL       0.250000       1.00800           0
      4971 MEMB     44       OSM      H14C     HL       0.250000       1.00800           0
      4972 MEMB     44       OSM      C13      CTL5    -0.350000       12.0110           0
      4973 MEMB     44       OSM      H13A     HL       0.250000       1.00800           0
      4974 MEMB     44       OSM      H13B     HL       0.250000       1.00800           0
      4975 MEMB     44       OSM      H13C     HL       0.250000       1.00800           0
      4976 MEMB     44       OSM      C12      CTL2    -0.100000       12.0110           0
      4977 MEMB     44       OSM      H12A     HL       0.250000       1.00800           0
      4978 MEMB     44       OSM      H12B     HL       0.250000       1.00800           0
      4979 MEMB     44       OSM      C11      CTL2    -0.800000E-01   12.0110           0
      4980 MEMB     44       OSM      H11A     HAL2     0.900000E-01   1.00800           0
      4981 MEMB     44       OSM      H11B     HAL2     0.900000E-01   1.00800           0
      4982 MEMB     44       OSM      P        PL        1.50000       30.9740           0
      4983 MEMB     44       OSM      O13      O2L     -0.780000       15.9994           0
      4984 MEMB     44       OSM      O14      O2L     -0.780000       15.9994           0
      4985 MEMB     44       OSM      O11      OSLP    -0.570000       15.9994           0
      4986 MEMB     44       OSM      O12      OSLP    -0.570000       15.9994           0
      4987 MEMB     44       OSM      C1S      CTL2    -0.800000E-01   12.0110           0
      4988 MEMB     44       OSM      H1S      HAL2     0.900000E-01   1.00800           0
      4989 MEMB     44       OSM      H1T      HAL2     0.900000E-01   1.00800           0
      4990 MEMB     44       OSM      NF       NHL     -0.700000       14.0070           0
      4991 MEMB     44       OSM      HNF      H        0.350000       1.00800           0
      4992 MEMB     44       OSM      C2S      CTL1     0.300000       12.0110           0
      4993 MEMB     44       OSM      H2S      HAL1     0.500000E-01   1.00800           0
      4994 MEMB     44       OSM      C3S      CTO1     0.500000       12.0110           0
      4995 MEMB     44       OSM      H3S      HAL1    -0.110000       1.00800           0
      4996 MEMB     44       OSM      O3       OHL     -0.690000       15.9994           0
      4997 MEMB     44       OSM      HO3      HOL      0.300000       1.00800           0
      4998 MEMB     44       OSM      C4S      CEL3    -0.150000       12.0110           0
      4999 MEMB     44       OSM      H4S      HEL1     0.150000       1.00800           0
      5000 MEMB     44       OSM      C5S      CEL3    -0.150000       12.0110           0
      5001 MEMB     44       OSM      H5S      HEL1     0.150000       1.00800           0
      5002 MEMB     44       OSM      C6S      CTL2    -0.180000       12.0110           0
      5003 MEMB     44       OSM      H6S      HAL2     0.900000E-01   1.00800           0
      5004 MEMB     44       OSM      H6T      HAL2     0.900000E-01   1.00800           0
      5005 MEMB     44       OSM      C7S      CTL2    -0.180000       12.0110           0
      5006 MEMB     44       OSM      H7S      HAL2     0.900000E-01   1.00800           0
      5007 MEMB     44       OSM      H7T      HAL2     0.900000E-01   1.00800           0
      5008 MEMB     44       OSM      C8S      CTL2    -0.180000       12.0110           0
      5009 MEMB     44       OSM      H8S      HAL2     0.900000E-01   1.00800           0
      5010 MEMB     44       OSM      H8T      HAL2     0.900000E-01   1.00800           0
      5011 MEMB     44       OSM      C9S      CTL2    -0.180000       12.0110           0
      5012 MEMB     44       OSM      H9S      HAL2     0.900000E-01   1.00800           0
      5013 MEMB     44       OSM      H9T      HAL2     0.900000E-01   1.00800           0
      5014 MEMB     44       OSM      C10S     CTL2    -0.180000       12.0110           0
      5015 MEMB     44       OSM      H10S     HAL2     0.900000E-01   1.00800           0
      5016 MEMB     44       OSM      H10T     HAL2     0.900000E-01   1.00800           0
      5017 MEMB     44       OSM      C11S     CTL2    -0.180000       12.0110           0
      5018 MEMB     44       OSM      H11S     HAL2     0.900000E-01   1.00800           0
      5019 MEMB     44       OSM      H11T     HAL2     0.900000E-01   1.00800           0
      5020 MEMB     44       OSM      C12S     CTL2    -0.180000       12.0110           0
      5021 MEMB     44       OSM      H12S     HAL2     0.900000E-01   1.00800           0
      5022 MEMB     44       OSM      H12T     HAL2     0.900000E-01   1.00800           0
      5023 MEMB     44       OSM      C13S     CTL2    -0.180000       12.0110           0
      5024 MEMB     44       OSM      H13S     HAL2     0.900000E-01   1.00800           0
      5025 MEMB     44       OSM      H13T     HAL2     0.900000E-01   1.00800           0
      5026 MEMB     44       OSM      C14S     CTL2    -0.180000       12.0110           0
      5027 MEMB     44       OSM      H14S     HAL2     0.900000E-01   1.00800           0
      5028 MEMB     44       OSM      H14T     HAL2     0.900000E-01   1.00800           0
      5029 MEMB     44       OSM      C15S     CTL2    -0.180000       12.0110           0
      5030 MEMB     44       OSM      H15S     HAL2     0.900000E-01   1.00800           0
      5031 MEMB     44       OSM      H15T     HAL2     0.900000E-01   1.00800           0
      5032 MEMB     44       OSM      C16S     CTL2    -0.180000       12.0110           0
      5033 MEMB     44       OSM      H16S     HAL2     0.900000E-01   1.00800           0
      5034 MEMB     44       OSM      H16T     HAL2     0.900000E-01   1.00800           0
      5035 MEMB     44       OSM      C17S     CTL2    -0.180000       12.0110           0
      5036 MEMB     44       OSM      H17S     HAL2     0.900000E-01   1.00800           0
      5037 MEMB     44       OSM      H17T     HAL2     0.900000E-01   1.00800           0
      5038 MEMB     44       OSM      C18S     CTL3    -0.270000       12.0110           0
      5039 MEMB     44       OSM      H18S     HAL3     0.900000E-01   1.00800           0
      5040 MEMB     44       OSM      H18T     HAL3     0.900000E-01   1.00800           0
      5041 MEMB     44       OSM      H18U     HAL3     0.900000E-01   1.00800           0
      5042 MEMB     44       OSM      C1F      C        0.550000       12.0110           0
      5043 MEMB     44       OSM      OF       O       -0.600000       15.9994           0
      5044 MEMB     44       OSM      C2F      CTL2    -0.700000E-01   12.0110           0
      5045 MEMB     44       OSM      H2F      HAL2     0.600000E-01   1.00800           0
      5046 MEMB     44       OSM      H2G      HAL2     0.600000E-01   1.00800           0
      5047 MEMB     44       OSM      C3F      CTL2    -0.180000       12.0110           0
      5048 MEMB     44       OSM      H3F      HAL2     0.900000E-01   1.00800           0
      5049 MEMB     44       OSM      H3G      HAL2     0.900000E-01   1.00800           0
      5050 MEMB     44       OSM      C4F      CTL2    -0.180000       12.0110           0
      5051 MEMB     44       OSM      H4F      HAL2     0.900000E-01   1.00800           0
      5052 MEMB     44       OSM      H4G      HAL2     0.900000E-01   1.00800           0
      5053 MEMB     44       OSM      C5F      CTL2    -0.180000       12.0110           0
      5054 MEMB     44       OSM      H5F      HAL2     0.900000E-01   1.00800           0
      5055 MEMB     44       OSM      H5G      HAL2     0.900000E-01   1.00800           0
      5056 MEMB     44       OSM      C6F      CTL2    -0.180000       12.0110           0
      5057 MEMB     44       OSM      H6F      HAL2     0.900000E-01   1.00800           0
      5058 MEMB     44       OSM      H6G      HAL2     0.900000E-01   1.00800           0
      5059 MEMB     44       OSM      C7F      CTL2    -0.180000       12.0110           0
      5060 MEMB     44       OSM      H7F      HAL2     0.900000E-01   1.00800           0
      5061 MEMB     44       OSM      H7G      HAL2     0.900000E-01   1.00800           0
      5062 MEMB     44       OSM      C8F      CTL2    -0.180000       12.0110           0
      5063 MEMB     44       OSM      H8F      HAL2     0.900000E-01   1.00800           0
      5064 MEMB     44       OSM      H8G      HAL2     0.900000E-01   1.00800           0
      5065 MEMB     44       OSM      C9F      CEL1    -0.150000       12.0110           0
      5066 MEMB     44       OSM      H9F      HEL1     0.150000       1.00800           0
      5067 MEMB     44       OSM      C10F     CEL1    -0.150000       12.0110           0
      5068 MEMB     44       OSM      H10F     HEL1     0.150000       1.00800           0
      5069 MEMB     44       OSM      C11F     CTL2    -0.180000       12.0110           0
      5070 MEMB     44       OSM      H11F     HAL2     0.900000E-01   1.00800           0
      5071 MEMB     44       OSM      H11G     HAL2     0.900000E-01   1.00800           0
      5072 MEMB     44       OSM      C12F     CTL2    -0.180000       12.0110           0
      5073 MEMB     44       OSM      H12F     HAL2     0.900000E-01   1.00800           0
      5074 MEMB     44       OSM      H12G     HAL2     0.900000E-01   1.00800           0
      5075 MEMB     44       OSM      C13F     CTL2    -0.180000       12.0110           0
      5076 MEMB     44       OSM      H13F     HAL2     0.900000E-01   1.00800           0
      5077 MEMB     44       OSM      H13G     HAL2     0.900000E-01   1.00800           0
      5078 MEMB     44       OSM      C14F     CTL2    -0.180000       12.0110           0
      5079 MEMB     44       OSM      H14F     HAL2     0.900000E-01   1.00800           0
      5080 MEMB     44       OSM      H14G     HAL2     0.900000E-01   1.00800           0
      5081 MEMB     44       OSM      C15F     CTL2    -0.180000       12.0110           0
      5082 MEMB     44       OSM      H15F     HAL2     0.900000E-01   1.00800           0
      5083 MEMB     44       OSM      H15G     HAL2     0.900000E-01   1.00800           0
      5084 MEMB     44       OSM      C16F     CTL2    -0.180000       12.0110           0
      5085 MEMB     44       OSM      H16F     HAL2     0.900000E-01   1.00800           0
      5086 MEMB     44       OSM      H16G     HAL2     0.900000E-01   1.00800           0
      5087 MEMB     44       OSM      C17F     CTL2    -0.180000       12.0110           0
      5088 MEMB     44       OSM      H17F     HAL2     0.900000E-01   1.00800           0
      5089 MEMB     44       OSM      H17G     HAL2     0.900000E-01   1.00800           0
      5090 MEMB     44       OSM      C18F     CTL3    -0.270000       12.0110           0
      5091 MEMB     44       OSM      H18F     HAL3     0.900000E-01   1.00800           0
      5092 MEMB     44       OSM      H18G     HAL3     0.900000E-01   1.00800           0
      5093 MEMB     44       OSM      H18H     HAL3     0.900000E-01   1.00800           0
      5094 MEMB     45       SAPE     N        NH3L    -0.300000       14.0070           0
      5095 MEMB     45       SAPE     HN1      HCL      0.330000       1.00800           0
      5096 MEMB     45       SAPE     HN2      HCL      0.330000       1.00800           0
      5097 MEMB     45       SAPE     HN3      HCL      0.330000       1.00800           0
      5098 MEMB     45       SAPE     C12      CTL2     0.130000       12.0110           0
      5099 MEMB     45       SAPE     H12A     HAL2     0.900000E-01   1.00800           0
      5100 MEMB     45       SAPE     H12B     HAL2     0.900000E-01   1.00800           0
      5101 MEMB     45       SAPE     C11      CTL2    -0.800000E-01   12.0110           0
      5102 MEMB     45       SAPE     H11A     HAL2     0.900000E-01   1.00800           0
      5103 MEMB     45       SAPE     H11B     HAL2     0.900000E-01   1.00800           0
      5104 MEMB     45       SAPE     P        PL        1.50000       30.9740           0
      5105 MEMB     45       SAPE     O13      O2L     -0.780000       15.9994           0
      5106 MEMB     45       SAPE     O14      O2L     -0.780000       15.9994           0
      5107 MEMB     45       SAPE     O12      OSLP    -0.570000       15.9994           0
      5108 MEMB     45       SAPE     O11      OSLP    -0.570000       15.9994           0
      5109 MEMB     45       SAPE     C1       CTL2    -0.800000E-01   12.0110           0
      5110 MEMB     45       SAPE     HA       HAL2     0.900000E-01   1.00800           0
      5111 MEMB     45       SAPE     HB       HAL2     0.900000E-01   1.00800           0
      5112 MEMB     45       SAPE     C2       CTL1     0.170000       12.0110           0
      5113 MEMB     45       SAPE     HS       HAL1     0.900000E-01   1.00800           0
      5114 MEMB     45       SAPE     O21      OSL     -0.490000       15.9994           0
      5115 MEMB     45       SAPE     C21      CL       0.900000       12.0110           0
      5116 MEMB     45       SAPE     O22      OBL     -0.630000       15.9994           0
      5117 MEMB     45       SAPE     C22      CTL2    -0.220000       12.0110           0
      5118 MEMB     45       SAPE     H2R      HAL2     0.900000E-01   1.00800           0
      5119 MEMB     45       SAPE     H2S      HAL2     0.900000E-01   1.00800           0
      5120 MEMB     45       SAPE     C3       CTL2     0.800000E-01   12.0110           0
      5121 MEMB     45       SAPE     HX       HAL2     0.900000E-01   1.00800           0
      5122 MEMB     45       SAPE     HY       HAL2     0.900000E-01   1.00800           0
      5123 MEMB     45       SAPE     O31      OSL     -0.490000       15.9994           0
      5124 MEMB     45       SAPE     C31      CL       0.900000       12.0110           0
      5125 MEMB     45       SAPE     O32      OBL     -0.630000       15.9994           0
      5126 MEMB     45       SAPE     C32      CTL2    -0.220000       12.0110           0
      5127 MEMB     45       SAPE     H2X      HAL2     0.900000E-01   1.00800           0
      5128 MEMB     45       SAPE     H2Y      HAL2     0.900000E-01   1.00800           0
      5129 MEMB     45       SAPE     C23      CTL2    -0.180000       12.0110           0
      5130 MEMB     45       SAPE     H3R      HAL2     0.900000E-01   1.00800           0
      5131 MEMB     45       SAPE     H3S      HAL2     0.900000E-01   1.00800           0
      5132 MEMB     45       SAPE     C24      CTL2    -0.180000       12.0110           0
      5133 MEMB     45       SAPE     H4R      HAL2     0.900000E-01   1.00800           0
      5134 MEMB     45       SAPE     H4S      HAL2     0.900000E-01   1.00800           0
      5135 MEMB     45       SAPE     C25      CEL1    -0.150000       12.0110           0
      5136 MEMB     45       SAPE     H5R      HEL1     0.150000       1.00800           0
      5137 MEMB     45       SAPE     C26      CEL1    -0.150000       12.0110           0
      5138 MEMB     45       SAPE     H6R      HEL1     0.150000       1.00800           0
      5139 MEMB     45       SAPE     C27      CTL2    -0.180000       12.0110           0
      5140 MEMB     45       SAPE     H7R      HAL2     0.900000E-01   1.00800           0
      5141 MEMB     45       SAPE     H7S      HAL2     0.900000E-01   1.00800           0
      5142 MEMB     45       SAPE     C28      CEL1    -0.150000       12.0110           0
      5143 MEMB     45       SAPE     H8R      HEL1     0.150000       1.00800           0
      5144 MEMB     45       SAPE     C29      CEL1    -0.150000       12.0110           0
      5145 MEMB     45       SAPE     H9R      HEL1     0.150000       1.00800           0
      5146 MEMB     45       SAPE     C210     CTL2    -0.180000       12.0110           0
      5147 MEMB     45       SAPE     H10R     HAL2     0.900000E-01   1.00800           0
      5148 MEMB     45       SAPE     H10S     HAL2     0.900000E-01   1.00800           0
      5149 MEMB     45       SAPE     C211     CEL1    -0.150000       12.0110           0
      5150 MEMB     45       SAPE     H11R     HEL1     0.150000       1.00800           0
      5151 MEMB     45       SAPE     C212     CEL1    -0.150000       12.0110           0
      5152 MEMB     45       SAPE     H12R     HEL1     0.150000       1.00800           0
      5153 MEMB     45       SAPE     C213     CTL2    -0.180000       12.0110           0
      5154 MEMB     45       SAPE     H13R     HAL2     0.900000E-01   1.00800           0
      5155 MEMB     45       SAPE     H13S     HAL2     0.900000E-01   1.00800           0
      5156 MEMB     45       SAPE     C214     CEL1    -0.150000       12.0110           0
      5157 MEMB     45       SAPE     H14R     HEL1     0.150000       1.00800           0
      5158 MEMB     45       SAPE     C215     CEL1    -0.150000       12.0110           0
      5159 MEMB     45       SAPE     H15R     HEL1     0.150000       1.00800           0
      5160 MEMB     45       SAPE     C216     CTL2    -0.180000       12.0110           0
      5161 MEMB     45       SAPE     H16R     HAL2     0.900000E-01   1.00800           0
      5162 MEMB     45       SAPE     H16S     HAL2     0.900000E-01   1.00800           0
      5163 MEMB     45       SAPE     C217     CTL2    -0.180000       12.0110           0
      5164 MEMB     45       SAPE     H17R     HAL2     0.900000E-01   1.00800           0
      5165 MEMB     45       SAPE     H17S     HAL2     0.900000E-01   1.00800           0
      5166 MEMB     45       SAPE     C218     CTL2    -0.180000       12.0110           0
      5167 MEMB     45       SAPE     H18R     HAL2     0.900000E-01   1.00800           0
      5168 MEMB     45       SAPE     H18S     HAL2     0.900000E-01   1.00800           0
      5169 MEMB     45       SAPE     C219     CTL2    -0.180000       12.0110           0
      5170 MEMB     45       SAPE     H19R     HAL2     0.900000E-01   1.00800           0
      5171 MEMB     45       SAPE     H19S     HAL2     0.900000E-01   1.00800           0
      5172 MEMB     45       SAPE     C220     CTL3    -0.270000       12.0110           0
      5173 MEMB     45       SAPE     H20R     HAL3     0.900000E-01   1.00800           0
      5174 MEMB     45       SAPE     H20S     HAL3     0.900000E-01   1.00800           0
      5175 MEMB     45       SAPE     H20T     HAL3     0.900000E-01   1.00800           0
      5176 MEMB     45       SAPE     C33      CTL2    -0.180000       12.0110           0
      5177 MEMB     45       SAPE     H3X      HAL2     0.900000E-01   1.00800           0
      5178 MEMB     45       SAPE     H3Y      HAL2     0.900000E-01   1.00800           0
      5179 MEMB     45       SAPE     C34      CTL2    -0.180000       12.0110           0
      5180 MEMB     45       SAPE     H4X      HAL2     0.900000E-01   1.00800           0
      5181 MEMB     45       SAPE     H4Y      HAL2     0.900000E-01   1.00800           0
      5182 MEMB     45       SAPE     C35      CTL2    -0.180000       12.0110           0
      5183 MEMB     45       SAPE     H5X      HAL2     0.900000E-01   1.00800           0
      5184 MEMB     45       SAPE     H5Y      HAL2     0.900000E-01   1.00800           0
      5185 MEMB     45       SAPE     C36      CTL2    -0.180000       12.0110           0
      5186 MEMB     45       SAPE     H6X      HAL2     0.900000E-01   1.00800           0
      5187 MEMB     45       SAPE     H6Y      HAL2     0.900000E-01   1.00800           0
      5188 MEMB     45       SAPE     C37      CTL2    -0.180000       12.0110           0
      5189 MEMB     45       SAPE     H7X      HAL2     0.900000E-01   1.00800           0
      5190 MEMB     45       SAPE     H7Y      HAL2     0.900000E-01   1.00800           0
      5191 MEMB     45       SAPE     C38      CTL2    -0.180000       12.0110           0
      5192 MEMB     45       SAPE     H8X      HAL2     0.900000E-01   1.00800           0
      5193 MEMB     45       SAPE     H8Y      HAL2     0.900000E-01   1.00800           0
      5194 MEMB     45       SAPE     C39      CTL2    -0.180000       12.0110           0
      5195 MEMB     45       SAPE     H9X      HAL2     0.900000E-01   1.00800           0
      5196 MEMB     45       SAPE     H9Y      HAL2     0.900000E-01   1.00800           0
      5197 MEMB     45       SAPE     C310     CTL2    -0.180000       12.0110           0
      5198 MEMB     45       SAPE     H10X     HAL2     0.900000E-01   1.00800           0
      5199 MEMB     45       SAPE     H10Y     HAL2     0.900000E-01   1.00800           0
      5200 MEMB     45       SAPE     C311     CTL2    -0.180000       12.0110           0
      5201 MEMB     45       SAPE     H11X     HAL2     0.900000E-01   1.00800           0
      5202 MEMB     45       SAPE     H11Y     HAL2     0.900000E-01   1.00800           0
      5203 MEMB     45       SAPE     C312     CTL2    -0.180000       12.0110           0
      5204 MEMB     45       SAPE     H12X     HAL2     0.900000E-01   1.00800           0
      5205 MEMB     45       SAPE     H12Y     HAL2     0.900000E-01   1.00800           0
      5206 MEMB     45       SAPE     C313     CTL2    -0.180000       12.0110           0
      5207 MEMB     45       SAPE     H13X     HAL2     0.900000E-01   1.00800           0
      5208 MEMB     45       SAPE     H13Y     HAL2     0.900000E-01   1.00800           0
      5209 MEMB     45       SAPE     C314     CTL2    -0.180000       12.0110           0
      5210 MEMB     45       SAPE     H14X     HAL2     0.900000E-01   1.00800           0
      5211 MEMB     45       SAPE     H14Y     HAL2     0.900000E-01   1.00800           0
      5212 MEMB     45       SAPE     C315     CTL2    -0.180000       12.0110           0
      5213 MEMB     45       SAPE     H15X     HAL2     0.900000E-01   1.00800           0
      5214 MEMB     45       SAPE     H15Y     HAL2     0.900000E-01   1.00800           0
      5215 MEMB     45       SAPE     C316     CTL2    -0.180000       12.0110           0
      5216 MEMB     45       SAPE     H16X     HAL2     0.900000E-01   1.00800           0
      5217 MEMB     45       SAPE     H16Y     HAL2     0.900000E-01   1.00800           0
      5218 MEMB     45       SAPE     C317     CTL2    -0.180000       12.0110           0
      5219 MEMB     45       SAPE     H17X     HAL2     0.900000E-01   1.00800           0
      5220 MEMB     45       SAPE     H17Y     HAL2     0.900000E-01   1.00800           0
      5221 MEMB     45       SAPE     C318     CTL3    -0.270000       12.0110           0
      5222 MEMB     45       SAPE     H18X     HAL3     0.900000E-01   1.00800           0
      5223 MEMB     45       SAPE     H18Y     HAL3     0.900000E-01   1.00800           0
      5224 MEMB     45       SAPE     H18Z     HAL3     0.900000E-01   1.00800           0
      5225 MEMB     46       CHL1     C3       CRL1     0.140000       12.0110           0
      5226 MEMB     46       CHL1     H3       HGA1     0.900000E-01   1.00800           0
      5227 MEMB     46       CHL1     O3       OHL     -0.660000       15.9994           0
      5228 MEMB     46       CHL1     H3'      HOL      0.430000       1.00800           0
      5229 MEMB     46       CHL1     C4       CRL2    -0.180000       12.0110           0
      5230 MEMB     46       CHL1     H4A      HGA2     0.900000E-01   1.00800           0
      5231 MEMB     46       CHL1     H4B      HGA2     0.900000E-01   1.00800           0
      5232 MEMB     46       CHL1     C5       CEL1      0.00000       12.0110           0
      5233 MEMB     46       CHL1     C6       CEL1    -0.150000       12.0110           0
      5234 MEMB     46       CHL1     H6       HEL1     0.150000       1.00800           0
      5235 MEMB     46       CHL1     C7       CRL2    -0.180000       12.0110           0
      5236 MEMB     46       CHL1     H7A      HGA2     0.900000E-01   1.00800           0
      5237 MEMB     46       CHL1     H7B      HGA2     0.900000E-01   1.00800           0
      5238 MEMB     46       CHL1     C8       CRL1    -0.900000E-01   12.0110           0
      5239 MEMB     46       CHL1     H8       HGA1     0.900000E-01   1.00800           0
      5240 MEMB     46       CHL1     C14      CRL1    -0.900000E-01   12.0110           0
      5241 MEMB     46       CHL1     H14      HGA1     0.900000E-01   1.00800           0
      5242 MEMB     46       CHL1     C15      CRL2    -0.180000       12.0110           0
      5243 MEMB     46       CHL1     H15A     HGA2     0.900000E-01   1.00800           0
      5244 MEMB     46       CHL1     H15B     HGA2     0.900000E-01   1.00800           0
      5245 MEMB     46       CHL1     C16      CRL2    -0.180000       12.0110           0
      5246 MEMB     46       CHL1     H16A     HGA2     0.900000E-01   1.00800           0
      5247 MEMB     46       CHL1     H16B     HGA2     0.900000E-01   1.00800           0
      5248 MEMB     46       CHL1     C17      CRL1    -0.900000E-01   12.0110           0
      5249 MEMB     46       CHL1     H17      HGA1     0.900000E-01   1.00800           0
      5250 MEMB     46       CHL1     C13      CRL1      0.00000       12.0110           0
      5251 MEMB     46       CHL1     C18      CTL3    -0.270000       12.0110           0
      5252 MEMB     46       CHL1     H18A     HAL3     0.900000E-01   1.00800           0
      5253 MEMB     46       CHL1     H18B     HAL3     0.900000E-01   1.00800           0
      5254 MEMB     46       CHL1     H18C     HAL3     0.900000E-01   1.00800           0
      5255 MEMB     46       CHL1     C12      CRL2    -0.180000       12.0110           0
      5256 MEMB     46       CHL1     H12A     HGA2     0.900000E-01   1.00800           0
      5257 MEMB     46       CHL1     H12B     HGA2     0.900000E-01   1.00800           0
      5258 MEMB     46       CHL1     C11      CRL2    -0.180000       12.0110           0
      5259 MEMB     46       CHL1     H11A     HGA2     0.900000E-01   1.00800           0
      5260 MEMB     46       CHL1     H11B     HGA2     0.900000E-01   1.00800           0
      5261 MEMB     46       CHL1     C9       CRL1    -0.900000E-01   12.0110           0
      5262 MEMB     46       CHL1     H9       HGA1     0.900000E-01   1.00800           0
      5263 MEMB     46       CHL1     C10      CRL1      0.00000       12.0110           0
      5264 MEMB     46       CHL1     C19      CTL3    -0.270000       12.0110           0
      5265 MEMB     46       CHL1     H19A     HAL3     0.900000E-01   1.00800           0
      5266 MEMB     46       CHL1     H19B     HAL3     0.900000E-01   1.00800           0
      5267 MEMB     46       CHL1     H19C     HAL3     0.900000E-01   1.00800           0
      5268 MEMB     46       CHL1     C1       CRL2    -0.180000       12.0110           0
      5269 MEMB     46       CHL1     H1A      HGA2     0.900000E-01   1.00800           0
      5270 MEMB     46       CHL1     H1B      HGA2     0.900000E-01   1.00800           0
      5271 MEMB     46       CHL1     C2       CRL2    -0.180000       12.0110           0
      5272 MEMB     46       CHL1     H2A      HGA2     0.900000E-01   1.00800           0
      5273 MEMB     46       CHL1     H2B      HGA2     0.900000E-01   1.00800           0
      5274 MEMB     46       CHL1     C20      CTL1    -0.900000E-01   12.0110           0
      5275 MEMB     46       CHL1     H20      HAL1     0.900000E-01   1.00800           0
      5276 MEMB     46       CHL1     C21      CTL3    -0.270000       12.0110           0
      5277 MEMB     46       CHL1     H21A     HAL3     0.900000E-01   1.00800           0
      5278 MEMB     46       CHL1     H21B     HAL3     0.900000E-01   1.00800           0
      5279 MEMB     46       CHL1     H21C     HAL3     0.900000E-01   1.00800           0
      5280 MEMB     46       CHL1     C22      CTL2    -0.180000       12.0110           0
      5281 MEMB     46       CHL1     H22A     HAL2     0.900000E-01   1.00800           0
      5282 MEMB     46       CHL1     H22B     HAL2     0.900000E-01   1.00800           0
      5283 MEMB     46       CHL1     C23      CTL2    -0.180000       12.0110           0
      5284 MEMB     46       CHL1     H23A     HAL2     0.900000E-01   1.00800           0
      5285 MEMB     46       CHL1     H23B     HAL2     0.900000E-01   1.00800           0
      5286 MEMB     46       CHL1     C24      CTL2    -0.180000       12.0110           0
      5287 MEMB     46       CHL1     H24A     HAL2     0.900000E-01   1.00800           0
      5288 MEMB     46       CHL1     H24B     HAL2     0.900000E-01   1.00800           0
      5289 MEMB     46       CHL1     C25      CTL1    -0.900000E-01   12.0110           0
      5290 MEMB     46       CHL1     H25      HAL1     0.900000E-01   1.00800           0
      5291 MEMB     46       CHL1     C26      CTL3    -0.270000       12.0110           0
      5292 MEMB     46       CHL1     H26A     HAL3     0.900000E-01   1.00800           0
      5293 MEMB     46       CHL1     H26B     HAL3     0.900000E-01   1.00800           0
      5294 MEMB     46       CHL1     H26C     HAL3     0.900000E-01   1.00800           0
      5295 MEMB     46       CHL1     C27      CTL3    -0.270000       12.0110           0
      5296 MEMB     46       CHL1     H27A     HAL3     0.900000E-01   1.00800           0
      5297 MEMB     46       CHL1     H27B     HAL3     0.900000E-01   1.00800           0
      5298 MEMB     46       CHL1     H27C     HAL3     0.900000E-01   1.00800           0
      5299 MEMB     47       SAPC     N        NTL     -0.600000       14.0070           0
      5300 MEMB     47       SAPC     C12      CTL2    -0.100000       12.0110           0
      5301 MEMB     47       SAPC     H12A     HL       0.250000       1.00800           0
      5302 MEMB     47       SAPC     H12B     HL       0.250000       1.00800           0
      5303 MEMB     47       SAPC     C13      CTL5    -0.350000       12.0110           0
      5304 MEMB     47       SAPC     H13A     HL       0.250000       1.00800           0
      5305 MEMB     47       SAPC     H13B     HL       0.250000       1.00800           0
      5306 MEMB     47       SAPC     H13C     HL       0.250000       1.00800           0
      5307 MEMB     47       SAPC     C14      CTL5    -0.350000       12.0110           0
      5308 MEMB     47       SAPC     H14A     HL       0.250000       1.00800           0
      5309 MEMB     47       SAPC     H14B     HL       0.250000       1.00800           0
      5310 MEMB     47       SAPC     H14C     HL       0.250000       1.00800           0
      5311 MEMB     47       SAPC     C15      CTL5    -0.350000       12.0110           0
      5312 MEMB     47       SAPC     H15A     HL       0.250000       1.00800           0
      5313 MEMB     47       SAPC     H15B     HL       0.250000       1.00800           0
      5314 MEMB     47       SAPC     H15C     HL       0.250000       1.00800           0
      5315 MEMB     47       SAPC     C11      CTL2    -0.800000E-01   12.0110           0
      5316 MEMB     47       SAPC     H11A     HAL2     0.900000E-01   1.00800           0
      5317 MEMB     47       SAPC     H11B     HAL2     0.900000E-01   1.00800           0
      5318 MEMB     47       SAPC     P        PL        1.50000       30.9740           0
      5319 MEMB     47       SAPC     O13      O2L     -0.780000       15.9994           0
      5320 MEMB     47       SAPC     O14      O2L     -0.780000       15.9994           0
      5321 MEMB     47       SAPC     O12      OSLP    -0.570000       15.9994           0
      5322 MEMB     47       SAPC     O11      OSLP    -0.570000       15.9994           0
      5323 MEMB     47       SAPC     C1       CTL2    -0.800000E-01   12.0110           0
      5324 MEMB     47       SAPC     HA       HAL2     0.900000E-01   1.00800           0
      5325 MEMB     47       SAPC     HB       HAL2     0.900000E-01   1.00800           0
      5326 MEMB     47       SAPC     C2       CTL1     0.170000       12.0110           0
      5327 MEMB     47       SAPC     HS       HAL1     0.900000E-01   1.00800           0
      5328 MEMB     47       SAPC     O21      OSL     -0.490000       15.9994           0
      5329 MEMB     47       SAPC     C21      CL       0.900000       12.0110           0
      5330 MEMB     47       SAPC     O22      OBL     -0.630000       15.9994           0
      5331 MEMB     47       SAPC     C22      CTL2    -0.220000       12.0110           0
      5332 MEMB     47       SAPC     H2R      HAL2     0.900000E-01   1.00800           0
      5333 MEMB     47       SAPC     H2S      HAL2     0.900000E-01   1.00800           0
      5334 MEMB     47       SAPC     C3       CTL2     0.800000E-01   12.0110           0
      5335 MEMB     47       SAPC     HX       HAL2     0.900000E-01   1.00800           0
      5336 MEMB     47       SAPC     HY       HAL2     0.900000E-01   1.00800           0
      5337 MEMB     47       SAPC     O31      OSL     -0.490000       15.9994           0
      5338 MEMB     47       SAPC     C31      CL       0.900000       12.0110           0
      5339 MEMB     47       SAPC     O32      OBL     -0.630000       15.9994           0
      5340 MEMB     47       SAPC     C32      CTL2    -0.220000       12.0110           0
      5341 MEMB     47       SAPC     H2X      HAL2     0.900000E-01   1.00800           0
      5342 MEMB     47       SAPC     H2Y      HAL2     0.900000E-01   1.00800           0
      5343 MEMB     47       SAPC     C23      CTL2    -0.180000       12.0110           0
      5344 MEMB     47       SAPC     H3R      HAL2     0.900000E-01   1.00800           0
      5345 MEMB     47       SAPC     H3S      HAL2     0.900000E-01   1.00800           0
      5346 MEMB     47       SAPC     C24      CTL2    -0.180000       12.0110           0
      5347 MEMB     47       SAPC     H4R      HAL2     0.900000E-01   1.00800           0
      5348 MEMB     47       SAPC     H4S      HAL2     0.900000E-01   1.00800           0
      5349 MEMB     47       SAPC     C25      CEL1    -0.150000       12.0110           0
      5350 MEMB     47       SAPC     H5R      HEL1     0.150000       1.00800           0
      5351 MEMB     47       SAPC     C26      CEL1    -0.150000       12.0110           0
      5352 MEMB     47       SAPC     H6R      HEL1     0.150000       1.00800           0
      5353 MEMB     47       SAPC     C27      CTL2    -0.180000       12.0110           0
      5354 MEMB     47       SAPC     H7R      HAL2     0.900000E-01   1.00800           0
      5355 MEMB     47       SAPC     H7S      HAL2     0.900000E-01   1.00800           0
      5356 MEMB     47       SAPC     C28      CEL1    -0.150000       12.0110           0
      5357 MEMB     47       SAPC     H8R      HEL1     0.150000       1.00800           0
      5358 MEMB     47       SAPC     C29      CEL1    -0.150000       12.0110           0
      5359 MEMB     47       SAPC     H9R      HEL1     0.150000       1.00800           0
      5360 MEMB     47       SAPC     C210     CTL2    -0.180000       12.0110           0
      5361 MEMB     47       SAPC     H10R     HAL2     0.900000E-01   1.00800           0
      5362 MEMB     47       SAPC     H10S     HAL2     0.900000E-01   1.00800           0
      5363 MEMB     47       SAPC     C211     CEL1    -0.150000       12.0110           0
      5364 MEMB     47       SAPC     H11R     HEL1     0.150000       1.00800           0
      5365 MEMB     47       SAPC     C212     CEL1    -0.150000       12.0110           0
      5366 MEMB     47       SAPC     H12R     HEL1     0.150000       1.00800           0
      5367 MEMB     47       SAPC     C213     CTL2    -0.180000       12.0110           0
      5368 MEMB     47       SAPC     H13R     HAL2     0.900000E-01   1.00800           0
      5369 MEMB     47       SAPC     H13S     HAL2     0.900000E-01   1.00800           0
      5370 MEMB     47       SAPC     C214     CEL1    -0.150000       12.0110           0
      5371 MEMB     47       SAPC     H14R     HEL1     0.150000       1.00800           0
      5372 MEMB     47       SAPC     C215     CEL1    -0.150000       12.0110           0
      5373 MEMB     47       SAPC     H15R     HEL1     0.150000       1.00800           0
      5374 MEMB     47       SAPC     C216     CTL2    -0.180000       12.0110           0
      5375 MEMB     47       SAPC     H16R     HAL2     0.900000E-01   1.00800           0
      5376 MEMB     47       SAPC     H16S     HAL2     0.900000E-01   1.00800           0
      5377 MEMB     47       SAPC     C217     CTL2    -0.180000       12.0110           0
      5378 MEMB     47       SAPC     H17R     HAL2     0.900000E-01   1.00800           0
      5379 MEMB     47       SAPC     H17S     HAL2     0.900000E-01   1.00800           0
      5380 MEMB     47       SAPC     C218     CTL2    -0.270000       12.0110           0
      5381 MEMB     47       SAPC     H18R     HAL2     0.900000E-01   1.00800           0
      5382 MEMB     47       SAPC     H18S     HAL2     0.900000E-01   1.00800           0
      5383 MEMB     47       SAPC     C219     CTL2    -0.180000       12.0110           0
      5384 MEMB     47       SAPC     H19R     HAL2     0.900000E-01   1.00800           0
      5385 MEMB     47       SAPC     H19S     HAL2     0.900000E-01   1.00800           0
      5386 MEMB     47       SAPC     C220     CTL3    -0.180000       12.0110           0
      5387 MEMB     47       SAPC     H20R     HAL3     0.900000E-01   1.00800           0
      5388 MEMB     47       SAPC     H20S     HAL3     0.900000E-01   1.00800           0
      5389 MEMB     47       SAPC     H20T     HAL3     0.900000E-01   1.00800           0
      5390 MEMB     47       SAPC     C33      CTL2    -0.180000       12.0110           0
      5391 MEMB     47       SAPC     H3X      HAL2     0.900000E-01   1.00800           0
      5392 MEMB     47       SAPC     H3Y      HAL2     0.900000E-01   1.00800           0
      5393 MEMB     47       SAPC     C34      CTL2    -0.180000       12.0110           0
      5394 MEMB     47       SAPC     H4X      HAL2     0.900000E-01   1.00800           0
      5395 MEMB     47       SAPC     H4Y      HAL2     0.900000E-01   1.00800           0
      5396 MEMB     47       SAPC     C35      CTL2    -0.180000       12.0110           0
      5397 MEMB     47       SAPC     H5X      HAL2     0.900000E-01   1.00800           0
      5398 MEMB     47       SAPC     H5Y      HAL2     0.900000E-01   1.00800           0
      5399 MEMB     47       SAPC     C36      CTL2    -0.180000       12.0110           0
      5400 MEMB     47       SAPC     H6X      HAL2     0.900000E-01   1.00800           0
      5401 MEMB     47       SAPC     H6Y      HAL2     0.900000E-01   1.00800           0
      5402 MEMB     47       SAPC     C37      CTL2    -0.180000       12.0110           0
      5403 MEMB     47       SAPC     H7X      HAL2     0.900000E-01   1.00800           0
      5404 MEMB     47       SAPC     H7Y      HAL2     0.900000E-01   1.00800           0
      5405 MEMB     47       SAPC     C38      CTL2    -0.180000       12.0110           0
      5406 MEMB     47       SAPC     H8X      HAL2     0.900000E-01   1.00800           0
      5407 MEMB     47       SAPC     H8Y      HAL2     0.900000E-01   1.00800           0
      5408 MEMB     47       SAPC     C39      CTL2    -0.180000       12.0110           0
      5409 MEMB     47       SAPC     H9X      HAL2     0.900000E-01   1.00800           0
      5410 MEMB     47       SAPC     H9Y      HAL2     0.900000E-01   1.00800           0
      5411 MEMB     47       SAPC     C310     CTL2    -0.180000       12.0110           0
      5412 MEMB     47       SAPC     H10X     HAL2     0.900000E-01   1.00800           0
      5413 MEMB     47       SAPC     H10Y     HAL2     0.900000E-01   1.00800           0
      5414 MEMB     47       SAPC     C311     CTL2    -0.180000       12.0110           0
      5415 MEMB     47       SAPC     H11X     HAL2     0.900000E-01   1.00800           0
      5416 MEMB     47       SAPC     H11Y     HAL2     0.900000E-01   1.00800           0
      5417 MEMB     47       SAPC     C312     CTL2    -0.180000       12.0110           0
      5418 MEMB     47       SAPC     H12X     HAL2     0.900000E-01   1.00800           0
      5419 MEMB     47       SAPC     H12Y     HAL2     0.900000E-01   1.00800           0
      5420 MEMB     47       SAPC     C313     CTL2    -0.180000       12.0110           0
      5421 MEMB     47       SAPC     H13X     HAL2     0.900000E-01   1.00800           0
      5422 MEMB     47       SAPC     H13Y     HAL2     0.900000E-01   1.00800           0
      5423 MEMB     47       SAPC     C314     CTL2    -0.180000       12.0110           0
      5424 MEMB     47       SAPC     H14X     HAL2     0.900000E-01   1.00800           0
      5425 MEMB     47       SAPC     H14Y     HAL2     0.900000E-01   1.00800           0
      5426 MEMB     47       SAPC     C315     CTL2    -0.180000       12.0110           0
      5427 MEMB     47       SAPC     H15X     HAL2     0.900000E-01   1.00800           0
      5428 MEMB     47       SAPC     H15Y     HAL2     0.900000E-01   1.00800           0
      5429 MEMB     47       SAPC     C316     CTL2    -0.180000       12.0110           0
      5430 MEMB     47       SAPC     H16X     HAL2     0.900000E-01   1.00800           0
      5431 MEMB     47       SAPC     H16Y     HAL2     0.900000E-01   1.00800           0
      5432 MEMB     47       SAPC     C317     CTL2    -0.180000       12.0110           0
      5433 MEMB     47       SAPC     H17X     HAL2     0.900000E-01   1.00800           0
      5434 MEMB     47       SAPC     H17Y     HAL2     0.900000E-01   1.00800           0
      5435 MEMB     47       SAPC     C318     CTL3    -0.270000       12.0110           0
      5436 MEMB     47       SAPC     H18X     HAL3     0.900000E-01   1.00800           0
      5437 MEMB     47       SAPC     H18Y     HAL3     0.900000E-01   1.00800           0
      5438 MEMB     47       SAPC     H18Z     HAL3     0.900000E-01   1.00800           0
      5439 MEMB     48       CHL1     C3       CRL1     0.140000       12.0110           0
      5440 MEMB     48       CHL1     H3       HGA1     0.900000E-01   1.00800           0
      5441 MEMB     48       CHL1     O3       OHL     -0.660000       15.9994           0
      5442 MEMB     48       CHL1     H3'      HOL      0.430000       1.00800           0
      5443 MEMB     48       CHL1     C4       CRL2    -0.180000       12.0110           0
      5444 MEMB     48       CHL1     H4A      HGA2     0.900000E-01   1.00800           0
      5445 MEMB     48       CHL1     H4B      HGA2     0.900000E-01   1.00800           0
      5446 MEMB     48       CHL1     C5       CEL1      0.00000       12.0110           0
      5447 MEMB     48       CHL1     C6       CEL1    -0.150000       12.0110           0
      5448 MEMB     48       CHL1     H6       HEL1     0.150000       1.00800           0
      5449 MEMB     48       CHL1     C7       CRL2    -0.180000       12.0110           0
      5450 MEMB     48       CHL1     H7A      HGA2     0.900000E-01   1.00800           0
      5451 MEMB     48       CHL1     H7B      HGA2     0.900000E-01   1.00800           0
      5452 MEMB     48       CHL1     C8       CRL1    -0.900000E-01   12.0110           0
      5453 MEMB     48       CHL1     H8       HGA1     0.900000E-01   1.00800           0
      5454 MEMB     48       CHL1     C14      CRL1    -0.900000E-01   12.0110           0
      5455 MEMB     48       CHL1     H14      HGA1     0.900000E-01   1.00800           0
      5456 MEMB     48       CHL1     C15      CRL2    -0.180000       12.0110           0
      5457 MEMB     48       CHL1     H15A     HGA2     0.900000E-01   1.00800           0
      5458 MEMB     48       CHL1     H15B     HGA2     0.900000E-01   1.00800           0
      5459 MEMB     48       CHL1     C16      CRL2    -0.180000       12.0110           0
      5460 MEMB     48       CHL1     H16A     HGA2     0.900000E-01   1.00800           0
      5461 MEMB     48       CHL1     H16B     HGA2     0.900000E-01   1.00800           0
      5462 MEMB     48       CHL1     C17      CRL1    -0.900000E-01   12.0110           0
      5463 MEMB     48       CHL1     H17      HGA1     0.900000E-01   1.00800           0
      5464 MEMB     48       CHL1     C13      CRL1      0.00000       12.0110           0
      5465 MEMB     48       CHL1     C18      CTL3    -0.270000       12.0110           0
      5466 MEMB     48       CHL1     H18A     HAL3     0.900000E-01   1.00800           0
      5467 MEMB     48       CHL1     H18B     HAL3     0.900000E-01   1.00800           0
      5468 MEMB     48       CHL1     H18C     HAL3     0.900000E-01   1.00800           0
      5469 MEMB     48       CHL1     C12      CRL2    -0.180000       12.0110           0
      5470 MEMB     48       CHL1     H12A     HGA2     0.900000E-01   1.00800           0
      5471 MEMB     48       CHL1     H12B     HGA2     0.900000E-01   1.00800           0
      5472 MEMB     48       CHL1     C11      CRL2    -0.180000       12.0110           0
      5473 MEMB     48       CHL1     H11A     HGA2     0.900000E-01   1.00800           0
      5474 MEMB     48       CHL1     H11B     HGA2     0.900000E-01   1.00800           0
      5475 MEMB     48       CHL1     C9       CRL1    -0.900000E-01   12.0110           0
      5476 MEMB     48       CHL1     H9       HGA1     0.900000E-01   1.00800           0
      5477 MEMB     48       CHL1     C10      CRL1      0.00000       12.0110           0
      5478 MEMB     48       CHL1     C19      CTL3    -0.270000       12.0110           0
      5479 MEMB     48       CHL1     H19A     HAL3     0.900000E-01   1.00800           0
      5480 MEMB     48       CHL1     H19B     HAL3     0.900000E-01   1.00800           0
      5481 MEMB     48       CHL1     H19C     HAL3     0.900000E-01   1.00800           0
      5482 MEMB     48       CHL1     C1       CRL2    -0.180000       12.0110           0
      5483 MEMB     48       CHL1     H1A      HGA2     0.900000E-01   1.00800           0
      5484 MEMB     48       CHL1     H1B      HGA2     0.900000E-01   1.00800           0
      5485 MEMB     48       CHL1     C2       CRL2    -0.180000       12.0110           0
      5486 MEMB     48       CHL1     H2A      HGA2     0.900000E-01   1.00800           0
      5487 MEMB     48       CHL1     H2B      HGA2     0.900000E-01   1.00800           0
      5488 MEMB     48       CHL1     C20      CTL1    -0.900000E-01   12.0110           0
      5489 MEMB     48       CHL1     H20      HAL1     0.900000E-01   1.00800           0
      5490 MEMB     48       CHL1     C21      CTL3    -0.270000       12.0110           0
      5491 MEMB     48       CHL1     H21A     HAL3     0.900000E-01   1.00800           0
      5492 MEMB     48       CHL1     H21B     HAL3     0.900000E-01   1.00800           0
      5493 MEMB     48       CHL1     H21C     HAL3     0.900000E-01   1.00800           0
      5494 MEMB     48       CHL1     C22      CTL2    -0.180000       12.0110           0
      5495 MEMB     48       CHL1     H22A     HAL2     0.900000E-01   1.00800           0
      5496 MEMB     48       CHL1     H22B     HAL2     0.900000E-01   1.00800           0
      5497 MEMB     48       CHL1     C23      CTL2    -0.180000       12.0110           0
      5498 MEMB     48       CHL1     H23A     HAL2     0.900000E-01   1.00800           0
      5499 MEMB     48       CHL1     H23B     HAL2     0.900000E-01   1.00800           0
      5500 MEMB     48       CHL1     C24      CTL2    -0.180000       12.0110           0
      5501 MEMB     48       CHL1     H24A     HAL2     0.900000E-01   1.00800           0
      5502 MEMB     48       CHL1     H24B     HAL2     0.900000E-01   1.00800           0
      5503 MEMB     48       CHL1     C25      CTL1    -0.900000E-01   12.0110           0
      5504 MEMB     48       CHL1     H25      HAL1     0.900000E-01   1.00800           0
      5505 MEMB     48       CHL1     C26      CTL3    -0.270000       12.0110           0
      5506 MEMB     48       CHL1     H26A     HAL3     0.900000E-01   1.00800           0
      5507 MEMB     48       CHL1     H26B     HAL3     0.900000E-01   1.00800           0
      5508 MEMB     48       CHL1     H26C     HAL3     0.900000E-01   1.00800           0
      5509 MEMB     48       CHL1     C27      CTL3    -0.270000       12.0110           0
      5510 MEMB     48       CHL1     H27A     HAL3     0.900000E-01   1.00800           0
      5511 MEMB     48       CHL1     H27B     HAL3     0.900000E-01   1.00800           0
      5512 MEMB     48       CHL1     H27C     HAL3     0.900000E-01   1.00800           0
      5513 MEMB     49       SAPE     N        NH3L    -0.300000       14.0070           0
      5514 MEMB     49       SAPE     HN1      HCL      0.330000       1.00800           0
      5515 MEMB     49       SAPE     HN2      HCL      0.330000       1.00800           0
      5516 MEMB     49       SAPE     HN3      HCL      0.330000       1.00800           0
      5517 MEMB     49       SAPE     C12      CTL2     0.130000       12.0110           0
      5518 MEMB     49       SAPE     H12A     HAL2     0.900000E-01   1.00800           0
      5519 MEMB     49       SAPE     H12B     HAL2     0.900000E-01   1.00800           0
      5520 MEMB     49       SAPE     C11      CTL2    -0.800000E-01   12.0110           0
      5521 MEMB     49       SAPE     H11A     HAL2     0.900000E-01   1.00800           0
      5522 MEMB     49       SAPE     H11B     HAL2     0.900000E-01   1.00800           0
      5523 MEMB     49       SAPE     P        PL        1.50000       30.9740           0
      5524 MEMB     49       SAPE     O13      O2L     -0.780000       15.9994           0
      5525 MEMB     49       SAPE     O14      O2L     -0.780000       15.9994           0
      5526 MEMB     49       SAPE     O12      OSLP    -0.570000       15.9994           0
      5527 MEMB     49       SAPE     O11      OSLP    -0.570000       15.9994           0
      5528 MEMB     49       SAPE     C1       CTL2    -0.800000E-01   12.0110           0
      5529 MEMB     49       SAPE     HA       HAL2     0.900000E-01   1.00800           0
      5530 MEMB     49       SAPE     HB       HAL2     0.900000E-01   1.00800           0
      5531 MEMB     49       SAPE     C2       CTL1     0.170000       12.0110           0
      5532 MEMB     49       SAPE     HS       HAL1     0.900000E-01   1.00800           0
      5533 MEMB     49       SAPE     O21      OSL     -0.490000       15.9994           0
      5534 MEMB     49       SAPE     C21      CL       0.900000       12.0110           0
      5535 MEMB     49       SAPE     O22      OBL     -0.630000       15.9994           0
      5536 MEMB     49       SAPE     C22      CTL2    -0.220000       12.0110           0
      5537 MEMB     49       SAPE     H2R      HAL2     0.900000E-01   1.00800           0
      5538 MEMB     49       SAPE     H2S      HAL2     0.900000E-01   1.00800           0
      5539 MEMB     49       SAPE     C3       CTL2     0.800000E-01   12.0110           0
      5540 MEMB     49       SAPE     HX       HAL2     0.900000E-01   1.00800           0
      5541 MEMB     49       SAPE     HY       HAL2     0.900000E-01   1.00800           0
      5542 MEMB     49       SAPE     O31      OSL     -0.490000       15.9994           0
      5543 MEMB     49       SAPE     C31      CL       0.900000       12.0110           0
      5544 MEMB     49       SAPE     O32      OBL     -0.630000       15.9994           0
      5545 MEMB     49       SAPE     C32      CTL2    -0.220000       12.0110           0
      5546 MEMB     49       SAPE     H2X      HAL2     0.900000E-01   1.00800           0
      5547 MEMB     49       SAPE     H2Y      HAL2     0.900000E-01   1.00800           0
      5548 MEMB     49       SAPE     C23      CTL2    -0.180000       12.0110           0
      5549 MEMB     49       SAPE     H3R      HAL2     0.900000E-01   1.00800           0
      5550 MEMB     49       SAPE     H3S      HAL2     0.900000E-01   1.00800           0
      5551 MEMB     49       SAPE     C24      CTL2    -0.180000       12.0110           0
      5552 MEMB     49       SAPE     H4R      HAL2     0.900000E-01   1.00800           0
      5553 MEMB     49       SAPE     H4S      HAL2     0.900000E-01   1.00800           0
      5554 MEMB     49       SAPE     C25      CEL1    -0.150000       12.0110           0
      5555 MEMB     49       SAPE     H5R      HEL1     0.150000       1.00800           0
      5556 MEMB     49       SAPE     C26      CEL1    -0.150000       12.0110           0
      5557 MEMB     49       SAPE     H6R      HEL1     0.150000       1.00800           0
      5558 MEMB     49       SAPE     C27      CTL2    -0.180000       12.0110           0
      5559 MEMB     49       SAPE     H7R      HAL2     0.900000E-01   1.00800           0
      5560 MEMB     49       SAPE     H7S      HAL2     0.900000E-01   1.00800           0
      5561 MEMB     49       SAPE     C28      CEL1    -0.150000       12.0110           0
      5562 MEMB     49       SAPE     H8R      HEL1     0.150000       1.00800           0
      5563 MEMB     49       SAPE     C29      CEL1    -0.150000       12.0110           0
      5564 MEMB     49       SAPE     H9R      HEL1     0.150000       1.00800           0
      5565 MEMB     49       SAPE     C210     CTL2    -0.180000       12.0110           0
      5566 MEMB     49       SAPE     H10R     HAL2     0.900000E-01   1.00800           0
      5567 MEMB     49       SAPE     H10S     HAL2     0.900000E-01   1.00800           0
      5568 MEMB     49       SAPE     C211     CEL1    -0.150000       12.0110           0
      5569 MEMB     49       SAPE     H11R     HEL1     0.150000       1.00800           0
      5570 MEMB     49       SAPE     C212     CEL1    -0.150000       12.0110           0
      5571 MEMB     49       SAPE     H12R     HEL1     0.150000       1.00800           0
      5572 MEMB     49       SAPE     C213     CTL2    -0.180000       12.0110           0
      5573 MEMB     49       SAPE     H13R     HAL2     0.900000E-01   1.00800           0
      5574 MEMB     49       SAPE     H13S     HAL2     0.900000E-01   1.00800           0
      5575 MEMB     49       SAPE     C214     CEL1    -0.150000       12.0110           0
      5576 MEMB     49       SAPE     H14R     HEL1     0.150000       1.00800           0
      5577 MEMB     49       SAPE     C215     CEL1    -0.150000       12.0110           0
      5578 MEMB     49       SAPE     H15R     HEL1     0.150000       1.00800           0
      5579 MEMB     49       SAPE     C216     CTL2    -0.180000       12.0110           0
      5580 MEMB     49       SAPE     H16R     HAL2     0.900000E-01   1.00800           0
      5581 MEMB     49       SAPE     H16S     HAL2     0.900000E-01   1.00800           0
      5582 MEMB     49       SAPE     C217     CTL2    -0.180000       12.0110           0
      5583 MEMB     49       SAPE     H17R     HAL2     0.900000E-01   1.00800           0
      5584 MEMB     49       SAPE     H17S     HAL2     0.900000E-01   1.00800           0
      5585 MEMB     49       SAPE     C218     CTL2    -0.180000       12.0110           0
      5586 MEMB     49       SAPE     H18R     HAL2     0.900000E-01   1.00800           0
      5587 MEMB     49       SAPE     H18S     HAL2     0.900000E-01   1.00800           0
      5588 MEMB     49       SAPE     C219     CTL2    -0.180000       12.0110           0
      5589 MEMB     49       SAPE     H19R     HAL2     0.900000E-01   1.00800           0
      5590 MEMB     49       SAPE     H19S     HAL2     0.900000E-01   1.00800           0
      5591 MEMB     49       SAPE     C220     CTL3    -0.270000       12.0110           0
      5592 MEMB     49       SAPE     H20R     HAL3     0.900000E-01   1.00800           0
      5593 MEMB     49       SAPE     H20S     HAL3     0.900000E-01   1.00800           0
      5594 MEMB     49       SAPE     H20T     HAL3     0.900000E-01   1.00800           0
      5595 MEMB     49       SAPE     C33      CTL2    -0.180000       12.0110           0
      5596 MEMB     49       SAPE     H3X      HAL2     0.900000E-01   1.00800           0
      5597 MEMB     49       SAPE     H3Y      HAL2     0.900000E-01   1.00800           0
      5598 MEMB     49       SAPE     C34      CTL2    -0.180000       12.0110           0
      5599 MEMB     49       SAPE     H4X      HAL2     0.900000E-01   1.00800           0
      5600 MEMB     49       SAPE     H4Y      HAL2     0.900000E-01   1.00800           0
      5601 MEMB     49       SAPE     C35      CTL2    -0.180000       12.0110           0
      5602 MEMB     49       SAPE     H5X      HAL2     0.900000E-01   1.00800           0
      5603 MEMB     49       SAPE     H5Y      HAL2     0.900000E-01   1.00800           0
      5604 MEMB     49       SAPE     C36      CTL2    -0.180000       12.0110           0
      5605 MEMB     49       SAPE     H6X      HAL2     0.900000E-01   1.00800           0
      5606 MEMB     49       SAPE     H6Y      HAL2     0.900000E-01   1.00800           0
      5607 MEMB     49       SAPE     C37      CTL2    -0.180000       12.0110           0
      5608 MEMB     49       SAPE     H7X      HAL2     0.900000E-01   1.00800           0
      5609 MEMB     49       SAPE     H7Y      HAL2     0.900000E-01   1.00800           0
      5610 MEMB     49       SAPE     C38      CTL2    -0.180000       12.0110           0
      5611 MEMB     49       SAPE     H8X      HAL2     0.900000E-01   1.00800           0
      5612 MEMB     49       SAPE     H8Y      HAL2     0.900000E-01   1.00800           0
      5613 MEMB     49       SAPE     C39      CTL2    -0.180000       12.0110           0
      5614 MEMB     49       SAPE     H9X      HAL2     0.900000E-01   1.00800           0
      5615 MEMB     49       SAPE     H9Y      HAL2     0.900000E-01   1.00800           0
      5616 MEMB     49       SAPE     C310     CTL2    -0.180000       12.0110           0
      5617 MEMB     49       SAPE     H10X     HAL2     0.900000E-01   1.00800           0
      5618 MEMB     49       SAPE     H10Y     HAL2     0.900000E-01   1.00800           0
      5619 MEMB     49       SAPE     C311     CTL2    -0.180000       12.0110           0
      5620 MEMB     49       SAPE     H11X     HAL2     0.900000E-01   1.00800           0
      5621 MEMB     49       SAPE     H11Y     HAL2     0.900000E-01   1.00800           0
      5622 MEMB     49       SAPE     C312     CTL2    -0.180000       12.0110           0
      5623 MEMB     49       SAPE     H12X     HAL2     0.900000E-01   1.00800           0
      5624 MEMB     49       SAPE     H12Y     HAL2     0.900000E-01   1.00800           0
      5625 MEMB     49       SAPE     C313     CTL2    -0.180000       12.0110           0
      5626 MEMB     49       SAPE     H13X     HAL2     0.900000E-01   1.00800           0
      5627 MEMB     49       SAPE     H13Y     HAL2     0.900000E-01   1.00800           0
      5628 MEMB     49       SAPE     C314     CTL2    -0.180000       12.0110           0
      5629 MEMB     49       SAPE     H14X     HAL2     0.900000E-01   1.00800           0
      5630 MEMB     49       SAPE     H14Y     HAL2     0.900000E-01   1.00800           0
      5631 MEMB     49       SAPE     C315     CTL2    -0.180000       12.0110           0
      5632 MEMB     49       SAPE     H15X     HAL2     0.900000E-01   1.00800           0
      5633 MEMB     49       SAPE     H15Y     HAL2     0.900000E-01   1.00800           0
      5634 MEMB     49       SAPE     C316     CTL2    -0.180000       12.0110           0
      5635 MEMB     49       SAPE     H16X     HAL2     0.900000E-01   1.00800           0
      5636 MEMB     49       SAPE     H16Y     HAL2     0.900000E-01   1.00800           0
      5637 MEMB     49       SAPE     C317     CTL2    -0.180000       12.0110           0
      5638 MEMB     49       SAPE     H17X     HAL2     0.900000E-01   1.00800           0
      5639 MEMB     49       SAPE     H17Y     HAL2     0.900000E-01   1.00800           0
      5640 MEMB     49       SAPE     C318     CTL3    -0.270000       12.0110           0
      5641 MEMB     49       SAPE     H18X     HAL3     0.900000E-01   1.00800           0
      5642 MEMB     49       SAPE     H18Y     HAL3     0.900000E-01   1.00800           0
      5643 MEMB     49       SAPE     H18Z     HAL3     0.900000E-01   1.00800           0
      5644 MEMB     50       OSM      N        NTL     -0.600000       14.0070           0
      5645 MEMB     50       OSM      C15      CTL5    -0.350000       12.0110           0
      5646 MEMB     50       OSM      H15A     HL       0.250000       1.00800           0
      5647 MEMB     50       OSM      H15B     HL       0.250000       1.00800           0
      5648 MEMB     50       OSM      H15C     HL       0.250000       1.00800           0
      5649 MEMB     50       OSM      C14      CTL5    -0.350000       12.0110           0
      5650 MEMB     50       OSM      H14A     HL       0.250000       1.00800           0
      5651 MEMB     50       OSM      H14B     HL       0.250000       1.00800           0
      5652 MEMB     50       OSM      H14C     HL       0.250000       1.00800           0
      5653 MEMB     50       OSM      C13      CTL5    -0.350000       12.0110           0
      5654 MEMB     50       OSM      H13A     HL       0.250000       1.00800           0
      5655 MEMB     50       OSM      H13B     HL       0.250000       1.00800           0
      5656 MEMB     50       OSM      H13C     HL       0.250000       1.00800           0
      5657 MEMB     50       OSM      C12      CTL2    -0.100000       12.0110           0
      5658 MEMB     50       OSM      H12A     HL       0.250000       1.00800           0
      5659 MEMB     50       OSM      H12B     HL       0.250000       1.00800           0
      5660 MEMB     50       OSM      C11      CTL2    -0.800000E-01   12.0110           0
      5661 MEMB     50       OSM      H11A     HAL2     0.900000E-01   1.00800           0
      5662 MEMB     50       OSM      H11B     HAL2     0.900000E-01   1.00800           0
      5663 MEMB     50       OSM      P        PL        1.50000       30.9740           0
      5664 MEMB     50       OSM      O13      O2L     -0.780000       15.9994           0
      5665 MEMB     50       OSM      O14      O2L     -0.780000       15.9994           0
      5666 MEMB     50       OSM      O11      OSLP    -0.570000       15.9994           0
      5667 MEMB     50       OSM      O12      OSLP    -0.570000       15.9994           0
      5668 MEMB     50       OSM      C1S      CTL2    -0.800000E-01   12.0110           0
      5669 MEMB     50       OSM      H1S      HAL2     0.900000E-01   1.00800           0
      5670 MEMB     50       OSM      H1T      HAL2     0.900000E-01   1.00800           0
      5671 MEMB     50       OSM      NF       NHL     -0.700000       14.0070           0
      5672 MEMB     50       OSM      HNF      H        0.350000       1.00800           0
      5673 MEMB     50       OSM      C2S      CTL1     0.300000       12.0110           0
      5674 MEMB     50       OSM      H2S      HAL1     0.500000E-01   1.00800           0
      5675 MEMB     50       OSM      C3S      CTO1     0.500000       12.0110           0
      5676 MEMB     50       OSM      H3S      HAL1    -0.110000       1.00800           0
      5677 MEMB     50       OSM      O3       OHL     -0.690000       15.9994           0
      5678 MEMB     50       OSM      HO3      HOL      0.300000       1.00800           0
      5679 MEMB     50       OSM      C4S      CEL3    -0.150000       12.0110           0
      5680 MEMB     50       OSM      H4S      HEL1     0.150000       1.00800           0
      5681 MEMB     50       OSM      C5S      CEL3    -0.150000       12.0110           0
      5682 MEMB     50       OSM      H5S      HEL1     0.150000       1.00800           0
      5683 MEMB     50       OSM      C6S      CTL2    -0.180000       12.0110           0
      5684 MEMB     50       OSM      H6S      HAL2     0.900000E-01   1.00800           0
      5685 MEMB     50       OSM      H6T      HAL2     0.900000E-01   1.00800           0
      5686 MEMB     50       OSM      C7S      CTL2    -0.180000       12.0110           0
      5687 MEMB     50       OSM      H7S      HAL2     0.900000E-01   1.00800           0
      5688 MEMB     50       OSM      H7T      HAL2     0.900000E-01   1.00800           0
      5689 MEMB     50       OSM      C8S      CTL2    -0.180000       12.0110           0
      5690 MEMB     50       OSM      H8S      HAL2     0.900000E-01   1.00800           0
      5691 MEMB     50       OSM      H8T      HAL2     0.900000E-01   1.00800           0
      5692 MEMB     50       OSM      C9S      CTL2    -0.180000       12.0110           0
      5693 MEMB     50       OSM      H9S      HAL2     0.900000E-01   1.00800           0
      5694 MEMB     50       OSM      H9T      HAL2     0.900000E-01   1.00800           0
      5695 MEMB     50       OSM      C10S     CTL2    -0.180000       12.0110           0
      5696 MEMB     50       OSM      H10S     HAL2     0.900000E-01   1.00800           0
      5697 MEMB     50       OSM      H10T     HAL2     0.900000E-01   1.00800           0
      5698 MEMB     50       OSM      C11S     CTL2    -0.180000       12.0110           0
      5699 MEMB     50       OSM      H11S     HAL2     0.900000E-01   1.00800           0
      5700 MEMB     50       OSM      H11T     HAL2     0.900000E-01   1.00800           0
      5701 MEMB     50       OSM      C12S     CTL2    -0.180000       12.0110           0
      5702 MEMB     50       OSM      H12S     HAL2     0.900000E-01   1.00800           0
      5703 MEMB     50       OSM      H12T     HAL2     0.900000E-01   1.00800           0
      5704 MEMB     50       OSM      C13S     CTL2    -0.180000       12.0110           0
      5705 MEMB     50       OSM      H13S     HAL2     0.900000E-01   1.00800           0
      5706 MEMB     50       OSM      H13T     HAL2     0.900000E-01   1.00800           0
      5707 MEMB     50       OSM      C14S     CTL2    -0.180000       12.0110           0
      5708 MEMB     50       OSM      H14S     HAL2     0.900000E-01   1.00800           0
      5709 MEMB     50       OSM      H14T     HAL2     0.900000E-01   1.00800           0
      5710 MEMB     50       OSM      C15S     CTL2    -0.180000       12.0110           0
      5711 MEMB     50       OSM      H15S     HAL2     0.900000E-01   1.00800           0
      5712 MEMB     50       OSM      H15T     HAL2     0.900000E-01   1.00800           0
      5713 MEMB     50       OSM      C16S     CTL2    -0.180000       12.0110           0
      5714 MEMB     50       OSM      H16S     HAL2     0.900000E-01   1.00800           0
      5715 MEMB     50       OSM      H16T     HAL2     0.900000E-01   1.00800           0
      5716 MEMB     50       OSM      C17S     CTL2    -0.180000       12.0110           0
      5717 MEMB     50       OSM      H17S     HAL2     0.900000E-01   1.00800           0
      5718 MEMB     50       OSM      H17T     HAL2     0.900000E-01   1.00800           0
      5719 MEMB     50       OSM      C18S     CTL3    -0.270000       12.0110           0
      5720 MEMB     50       OSM      H18S     HAL3     0.900000E-01   1.00800           0
      5721 MEMB     50       OSM      H18T     HAL3     0.900000E-01   1.00800           0
      5722 MEMB     50       OSM      H18U     HAL3     0.900000E-01   1.00800           0
      5723 MEMB     50       OSM      C1F      C        0.550000       12.0110           0
      5724 MEMB     50       OSM      OF       O       -0.600000       15.9994           0
      5725 MEMB     50       OSM      C2F      CTL2    -0.700000E-01   12.0110           0
      5726 MEMB     50       OSM      H2F      HAL2     0.600000E-01   1.00800           0
      5727 MEMB     50       OSM      H2G      HAL2     0.600000E-01   1.00800           0
      5728 MEMB     50       OSM      C3F      CTL2    -0.180000       12.0110           0
      5729 MEMB     50       OSM      H3F      HAL2     0.900000E-01   1.00800           0
      5730 MEMB     50       OSM      H3G      HAL2     0.900000E-01   1.00800           0
      5731 MEMB     50       OSM      C4F      CTL2    -0.180000       12.0110           0
      5732 MEMB     50       OSM      H4F      HAL2     0.900000E-01   1.00800           0
      5733 MEMB     50       OSM      H4G      HAL2     0.900000E-01   1.00800           0
      5734 MEMB     50       OSM      C5F      CTL2    -0.180000       12.0110           0
      5735 MEMB     50       OSM      H5F      HAL2     0.900000E-01   1.00800           0
      5736 MEMB     50       OSM      H5G      HAL2     0.900000E-01   1.00800           0
      5737 MEMB     50       OSM      C6F      CTL2    -0.180000       12.0110           0
      5738 MEMB     50       OSM      H6F      HAL2     0.900000E-01   1.00800           0
      5739 MEMB     50       OSM      H6G      HAL2     0.900000E-01   1.00800           0
      5740 MEMB     50       OSM      C7F      CTL2    -0.180000       12.0110           0
      5741 MEMB     50       OSM      H7F      HAL2     0.900000E-01   1.00800           0
      5742 MEMB     50       OSM      H7G      HAL2     0.900000E-01   1.00800           0
      5743 MEMB     50       OSM      C8F      CTL2    -0.180000       12.0110           0
      5744 MEMB     50       OSM      H8F      HAL2     0.900000E-01   1.00800           0
      5745 MEMB     50       OSM      H8G      HAL2     0.900000E-01   1.00800           0
      5746 MEMB     50       OSM      C9F      CEL1    -0.150000       12.0110           0
      5747 MEMB     50       OSM      H9F      HEL1     0.150000       1.00800           0
      5748 MEMB     50       OSM      C10F     CEL1    -0.150000       12.0110           0
      5749 MEMB     50       OSM      H10F     HEL1     0.150000       1.00800           0
      5750 MEMB     50       OSM      C11F     CTL2    -0.180000       12.0110           0
      5751 MEMB     50       OSM      H11F     HAL2     0.900000E-01   1.00800           0
      5752 MEMB     50       OSM      H11G     HAL2     0.900000E-01   1.00800           0
      5753 MEMB     50       OSM      C12F     CTL2    -0.180000       12.0110           0
      5754 MEMB     50       OSM      H12F     HAL2     0.900000E-01   1.00800           0
      5755 MEMB     50       OSM      H12G     HAL2     0.900000E-01   1.00800           0
      5756 MEMB     50       OSM      C13F     CTL2    -0.180000       12.0110           0
      5757 MEMB     50       OSM      H13F     HAL2     0.900000E-01   1.00800           0
      5758 MEMB     50       OSM      H13G     HAL2     0.900000E-01   1.00800           0
      5759 MEMB     50       OSM      C14F     CTL2    -0.180000       12.0110           0
      5760 MEMB     50       OSM      H14F     HAL2     0.900000E-01   1.00800           0
      5761 MEMB     50       OSM      H14G     HAL2     0.900000E-01   1.00800           0
      5762 MEMB     50       OSM      C15F     CTL2    -0.180000       12.0110           0
      5763 MEMB     50       OSM      H15F     HAL2     0.900000E-01   1.00800           0
      5764 MEMB     50       OSM      H15G     HAL2     0.900000E-01   1.00800           0
      5765 MEMB     50       OSM      C16F     CTL2    -0.180000       12.0110           0
      5766 MEMB     50       OSM      H16F     HAL2     0.900000E-01   1.00800           0
      5767 MEMB     50       OSM      H16G     HAL2     0.900000E-01   1.00800           0
      5768 MEMB     50       OSM      C17F     CTL2    -0.180000       12.0110           0
      5769 MEMB     50       OSM      H17F     HAL2     0.900000E-01   1.00800           0
      5770 MEMB     50       OSM      H17G     HAL2     0.900000E-01   1.00800           0
      5771 MEMB     50       OSM      C18F     CTL3    -0.270000       12.0110           0
      5772 MEMB     50       OSM      H18F     HAL3     0.900000E-01   1.00800           0
      5773 MEMB     50       OSM      H18G     HAL3     0.900000E-01   1.00800           0
      5774 MEMB     50       OSM      H18H     HAL3     0.900000E-01   1.00800           0
      5775 MEMB     51       SLPC     N        NTL     -0.600000       14.0070           0
      5776 MEMB     51       SLPC     C13      CTL5    -0.350000       12.0110           0
      5777 MEMB     51       SLPC     H13A     HL       0.250000       1.00800           0
      5778 MEMB     51       SLPC     H13B     HL       0.250000       1.00800           0
      5779 MEMB     51       SLPC     H13C     HL       0.250000       1.00800           0
      5780 MEMB     51       SLPC     C14      CTL5    -0.350000       12.0110           0
      5781 MEMB     51       SLPC     H14A     HL       0.250000       1.00800           0
      5782 MEMB     51       SLPC     H14B     HL       0.250000       1.00800           0
      5783 MEMB     51       SLPC     H14C     HL       0.250000       1.00800           0
      5784 MEMB     51       SLPC     C15      CTL5    -0.350000       12.0110           0
      5785 MEMB     51       SLPC     H15A     HL       0.250000       1.00800           0
      5786 MEMB     51       SLPC     H15B     HL       0.250000       1.00800           0
      5787 MEMB     51       SLPC     H15C     HL       0.250000       1.00800           0
      5788 MEMB     51       SLPC     C12      CTL2    -0.100000       12.0110           0
      5789 MEMB     51       SLPC     H12A     HL       0.250000       1.00800           0
      5790 MEMB     51       SLPC     H12B     HL       0.250000       1.00800           0
      5791 MEMB     51       SLPC     C11      CTL2    -0.800000E-01   12.0110           0
      5792 MEMB     51       SLPC     H11A     HAL2     0.900000E-01   1.00800           0
      5793 MEMB     51       SLPC     H11B     HAL2     0.900000E-01   1.00800           0
      5794 MEMB     51       SLPC     P        PL        1.50000       30.9740           0
      5795 MEMB     51       SLPC     O13      O2L     -0.780000       15.9994           0
      5796 MEMB     51       SLPC     O14      O2L     -0.780000       15.9994           0
      5797 MEMB     51       SLPC     O12      OSLP    -0.570000       15.9994           0
      5798 MEMB     51       SLPC     O11      OSLP    -0.570000       15.9994           0
      5799 MEMB     51       SLPC     C1       CTL2    -0.800000E-01   12.0110           0
      5800 MEMB     51       SLPC     HA       HAL2     0.900000E-01   1.00800           0
      5801 MEMB     51       SLPC     HB       HAL2     0.900000E-01   1.00800           0
      5802 MEMB     51       SLPC     C2       CTL1     0.170000       12.0110           0
      5803 MEMB     51       SLPC     HS       HAL1     0.900000E-01   1.00800           0
      5804 MEMB     51       SLPC     O21      OSL     -0.490000       15.9994           0
      5805 MEMB     51       SLPC     C21      CL       0.900000       12.0110           0
      5806 MEMB     51       SLPC     O22      OBL     -0.630000       15.9994           0
      5807 MEMB     51       SLPC     C22      CTL2    -0.220000       12.0110           0
      5808 MEMB     51       SLPC     H2R      HAL2     0.900000E-01   1.00800           0
      5809 MEMB     51       SLPC     H2S      HAL2     0.900000E-01   1.00800           0
      5810 MEMB     51       SLPC     C3       CTL2     0.800000E-01   12.0110           0
      5811 MEMB     51       SLPC     HX       HAL2     0.900000E-01   1.00800           0
      5812 MEMB     51       SLPC     HY       HAL2     0.900000E-01   1.00800           0
      5813 MEMB     51       SLPC     O31      OSL     -0.490000       15.9994           0
      5814 MEMB     51       SLPC     C31      CL       0.900000       12.0110           0
      5815 MEMB     51       SLPC     O32      OBL     -0.630000       15.9994           0
      5816 MEMB     51       SLPC     C32      CTL2    -0.220000       12.0110           0
      5817 MEMB     51       SLPC     H2X      HAL2     0.900000E-01   1.00800           0
      5818 MEMB     51       SLPC     H2Y      HAL2     0.900000E-01   1.00800           0
      5819 MEMB     51       SLPC     C23      CTL2    -0.180000       12.0110           0
      5820 MEMB     51       SLPC     H3R      HAL2     0.900000E-01   1.00800           0
      5821 MEMB     51       SLPC     H3S      HAL2     0.900000E-01   1.00800           0
      5822 MEMB     51       SLPC     C24      CTL2    -0.180000       12.0110           0
      5823 MEMB     51       SLPC     H4R      HAL2     0.900000E-01   1.00800           0
      5824 MEMB     51       SLPC     H4S      HAL2     0.900000E-01   1.00800           0
      5825 MEMB     51       SLPC     C25      CTL2    -0.180000       12.0110           0
      5826 MEMB     51       SLPC     H5R      HAL2     0.900000E-01   1.00800           0
      5827 MEMB     51       SLPC     H5S      HAL2     0.900000E-01   1.00800           0
      5828 MEMB     51       SLPC     C26      CTL2    -0.180000       12.0110           0
      5829 MEMB     51       SLPC     H6R      HAL2     0.900000E-01   1.00800           0
      5830 MEMB     51       SLPC     H6S      HAL2     0.900000E-01   1.00800           0
      5831 MEMB     51       SLPC     C27      CTL2    -0.180000       12.0110           0
      5832 MEMB     51       SLPC     H7R      HAL2     0.900000E-01   1.00800           0
      5833 MEMB     51       SLPC     H7S      HAL2     0.900000E-01   1.00800           0
      5834 MEMB     51       SLPC     C28      CTL2    -0.180000       12.0110           0
      5835 MEMB     51       SLPC     H8R      HAL2     0.900000E-01   1.00800           0
      5836 MEMB     51       SLPC     H8S      HAL2     0.900000E-01   1.00800           0
      5837 MEMB     51       SLPC     C29      CEL1    -0.150000       12.0110           0
      5838 MEMB     51       SLPC     H9R      HEL1     0.150000       1.00800           0
      5839 MEMB     51       SLPC     C210     CEL1    -0.150000       12.0110           0
      5840 MEMB     51       SLPC     H10R     HEL1     0.150000       1.00800           0
      5841 MEMB     51       SLPC     C211     CTL2    -0.180000       12.0110           0
      5842 MEMB     51       SLPC     H11R     HAL2     0.900000E-01   1.00800           0
      5843 MEMB     51       SLPC     H11S     HAL2     0.900000E-01   1.00800           0
      5844 MEMB     51       SLPC     C212     CEL1    -0.150000       12.0110           0
      5845 MEMB     51       SLPC     H12R     HEL1     0.150000       1.00800           0
      5846 MEMB     51       SLPC     C213     CEL1    -0.150000       12.0110           0
      5847 MEMB     51       SLPC     H13R     HEL1     0.150000       1.00800           0
      5848 MEMB     51       SLPC     C214     CTL2    -0.180000       12.0110           0
      5849 MEMB     51       SLPC     H14R     HAL2     0.900000E-01   1.00800           0
      5850 MEMB     51       SLPC     H14S     HAL2     0.900000E-01   1.00800           0
      5851 MEMB     51       SLPC     C215     CTL2    -0.180000       12.0110           0
      5852 MEMB     51       SLPC     H15R     HAL2     0.900000E-01   1.00800           0
      5853 MEMB     51       SLPC     H15S     HAL2     0.900000E-01   1.00800           0
      5854 MEMB     51       SLPC     C216     CTL2    -0.180000       12.0110           0
      5855 MEMB     51       SLPC     H16R     HAL2     0.900000E-01   1.00800           0
      5856 MEMB     51       SLPC     H16S     HAL2     0.900000E-01   1.00800           0
      5857 MEMB     51       SLPC     C217     CTL2    -0.180000       12.0110           0
      5858 MEMB     51       SLPC     H17R     HAL2     0.900000E-01   1.00800           0
      5859 MEMB     51       SLPC     H17S     HAL2     0.900000E-01   1.00800           0
      5860 MEMB     51       SLPC     C218     CTL3    -0.270000       12.0110           0
      5861 MEMB     51       SLPC     H18R     HAL3     0.900000E-01   1.00800           0
      5862 MEMB     51       SLPC     H18S     HAL3     0.900000E-01   1.00800           0
      5863 MEMB     51       SLPC     H18T     HAL3     0.900000E-01   1.00800           0
      5864 MEMB     51       SLPC     C33      CTL2    -0.180000       12.0110           0
      5865 MEMB     51       SLPC     H3X      HAL2     0.900000E-01   1.00800           0
      5866 MEMB     51       SLPC     H3Y      HAL2     0.900000E-01   1.00800           0
      5867 MEMB     51       SLPC     C34      CTL2    -0.180000       12.0110           0
      5868 MEMB     51       SLPC     H4X      HAL2     0.900000E-01   1.00800           0
      5869 MEMB     51       SLPC     H4Y      HAL2     0.900000E-01   1.00800           0
      5870 MEMB     51       SLPC     C35      CTL2    -0.180000       12.0110           0
      5871 MEMB     51       SLPC     H5X      HAL2     0.900000E-01   1.00800           0
      5872 MEMB     51       SLPC     H5Y      HAL2     0.900000E-01   1.00800           0
      5873 MEMB     51       SLPC     C36      CTL2    -0.180000       12.0110           0
      5874 MEMB     51       SLPC     H6X      HAL2     0.900000E-01   1.00800           0
      5875 MEMB     51       SLPC     H6Y      HAL2     0.900000E-01   1.00800           0
      5876 MEMB     51       SLPC     C37      CTL2    -0.180000       12.0110           0
      5877 MEMB     51       SLPC     H7X      HAL2     0.900000E-01   1.00800           0
      5878 MEMB     51       SLPC     H7Y      HAL2     0.900000E-01   1.00800           0
      5879 MEMB     51       SLPC     C38      CTL2    -0.180000       12.0110           0
      5880 MEMB     51       SLPC     H8X      HAL2     0.900000E-01   1.00800           0
      5881 MEMB     51       SLPC     H8Y      HAL2     0.900000E-01   1.00800           0
      5882 MEMB     51       SLPC     C39      CTL2    -0.180000       12.0110           0
      5883 MEMB     51       SLPC     H9X      HAL2     0.900000E-01   1.00800           0
      5884 MEMB     51       SLPC     H9Y      HAL2     0.900000E-01   1.00800           0
      5885 MEMB     51       SLPC     C310     CTL2    -0.180000       12.0110           0
      5886 MEMB     51       SLPC     H10X     HAL2     0.900000E-01   1.00800           0
      5887 MEMB     51       SLPC     H10Y     HAL2     0.900000E-01   1.00800           0
      5888 MEMB     51       SLPC     C311     CTL2    -0.180000       12.0110           0
      5889 MEMB     51       SLPC     H11X     HAL2     0.900000E-01   1.00800           0
      5890 MEMB     51       SLPC     H11Y     HAL2     0.900000E-01   1.00800           0
      5891 MEMB     51       SLPC     C312     CTL2    -0.180000       12.0110           0
      5892 MEMB     51       SLPC     H12X     HAL2     0.900000E-01   1.00800           0
      5893 MEMB     51       SLPC     H12Y     HAL2     0.900000E-01   1.00800           0
      5894 MEMB     51       SLPC     C313     CTL2    -0.180000       12.0110           0
      5895 MEMB     51       SLPC     H13X     HAL2     0.900000E-01   1.00800           0
      5896 MEMB     51       SLPC     H13Y     HAL2     0.900000E-01   1.00800           0
      5897 MEMB     51       SLPC     C314     CTL2    -0.180000       12.0110           0
      5898 MEMB     51       SLPC     H14X     HAL2     0.900000E-01   1.00800           0
      5899 MEMB     51       SLPC     H14Y     HAL2     0.900000E-01   1.00800           0
      5900 MEMB     51       SLPC     C315     CTL2    -0.180000       12.0110           0
      5901 MEMB     51       SLPC     H15X     HAL2     0.900000E-01   1.00800           0
      5902 MEMB     51       SLPC     H15Y     HAL2     0.900000E-01   1.00800           0
      5903 MEMB     51       SLPC     C316     CTL2    -0.180000       12.0110           0
      5904 MEMB     51       SLPC     H16X     HAL2     0.900000E-01   1.00800           0
      5905 MEMB     51       SLPC     H16Y     HAL2     0.900000E-01   1.00800           0
      5906 MEMB     51       SLPC     C317     CTL2    -0.180000       12.0110           0
      5907 MEMB     51       SLPC     H17X     HAL2     0.900000E-01   1.00800           0
      5908 MEMB     51       SLPC     H17Y     HAL2     0.900000E-01   1.00800           0
      5909 MEMB     51       SLPC     C318     CTL3    -0.270000       12.0110           0
      5910 MEMB     51       SLPC     H18X     HAL3     0.900000E-01   1.00800           0
      5911 MEMB     51       SLPC     H18Y     HAL3     0.900000E-01   1.00800           0
      5912 MEMB     51       SLPC     H18Z     HAL3     0.900000E-01   1.00800           0
      5913 MEMB     52       CHL1     C3       CRL1     0.140000       12.0110           0
      5914 MEMB     52       CHL1     H3       HGA1     0.900000E-01   1.00800           0
      5915 MEMB     52       CHL1     O3       OHL     -0.660000       15.9994           0
      5916 MEMB     52       CHL1     H3'      HOL      0.430000       1.00800           0
      5917 MEMB     52       CHL1     C4       CRL2    -0.180000       12.0110           0
      5918 MEMB     52       CHL1     H4A      HGA2     0.900000E-01   1.00800           0
      5919 MEMB     52       CHL1     H4B      HGA2     0.900000E-01   1.00800           0
      5920 MEMB     52       CHL1     C5       CEL1      0.00000       12.0110           0
      5921 MEMB     52       CHL1     C6       CEL1    -0.150000       12.0110           0
      5922 MEMB     52       CHL1     H6       HEL1     0.150000       1.00800           0
      5923 MEMB     52       CHL1     C7       CRL2    -0.180000       12.0110           0
      5924 MEMB     52       CHL1     H7A      HGA2     0.900000E-01   1.00800           0
      5925 MEMB     52       CHL1     H7B      HGA2     0.900000E-01   1.00800           0
      5926 MEMB     52       CHL1     C8       CRL1    -0.900000E-01   12.0110           0
      5927 MEMB     52       CHL1     H8       HGA1     0.900000E-01   1.00800           0
      5928 MEMB     52       CHL1     C14      CRL1    -0.900000E-01   12.0110           0
      5929 MEMB     52       CHL1     H14      HGA1     0.900000E-01   1.00800           0
      5930 MEMB     52       CHL1     C15      CRL2    -0.180000       12.0110           0
      5931 MEMB     52       CHL1     H15A     HGA2     0.900000E-01   1.00800           0
      5932 MEMB     52       CHL1     H15B     HGA2     0.900000E-01   1.00800           0
      5933 MEMB     52       CHL1     C16      CRL2    -0.180000       12.0110           0
      5934 MEMB     52       CHL1     H16A     HGA2     0.900000E-01   1.00800           0
      5935 MEMB     52       CHL1     H16B     HGA2     0.900000E-01   1.00800           0
      5936 MEMB     52       CHL1     C17      CRL1    -0.900000E-01   12.0110           0
      5937 MEMB     52       CHL1     H17      HGA1     0.900000E-01   1.00800           0
      5938 MEMB     52       CHL1     C13      CRL1      0.00000       12.0110           0
      5939 MEMB     52       CHL1     C18      CTL3    -0.270000       12.0110           0
      5940 MEMB     52       CHL1     H18A     HAL3     0.900000E-01   1.00800           0
      5941 MEMB     52       CHL1     H18B     HAL3     0.900000E-01   1.00800           0
      5942 MEMB     52       CHL1     H18C     HAL3     0.900000E-01   1.00800           0
      5943 MEMB     52       CHL1     C12      CRL2    -0.180000       12.0110           0
      5944 MEMB     52       CHL1     H12A     HGA2     0.900000E-01   1.00800           0
      5945 MEMB     52       CHL1     H12B     HGA2     0.900000E-01   1.00800           0
      5946 MEMB     52       CHL1     C11      CRL2    -0.180000       12.0110           0
      5947 MEMB     52       CHL1     H11A     HGA2     0.900000E-01   1.00800           0
      5948 MEMB     52       CHL1     H11B     HGA2     0.900000E-01   1.00800           0
      5949 MEMB     52       CHL1     C9       CRL1    -0.900000E-01   12.0110           0
      5950 MEMB     52       CHL1     H9       HGA1     0.900000E-01   1.00800           0
      5951 MEMB     52       CHL1     C10      CRL1      0.00000       12.0110           0
      5952 MEMB     52       CHL1     C19      CTL3    -0.270000       12.0110           0
      5953 MEMB     52       CHL1     H19A     HAL3     0.900000E-01   1.00800           0
      5954 MEMB     52       CHL1     H19B     HAL3     0.900000E-01   1.00800           0
      5955 MEMB     52       CHL1     H19C     HAL3     0.900000E-01   1.00800           0
      5956 MEMB     52       CHL1     C1       CRL2    -0.180000       12.0110           0
      5957 MEMB     52       CHL1     H1A      HGA2     0.900000E-01   1.00800           0
      5958 MEMB     52       CHL1     H1B      HGA2     0.900000E-01   1.00800           0
      5959 MEMB     52       CHL1     C2       CRL2    -0.180000       12.0110           0
      5960 MEMB     52       CHL1     H2A      HGA2     0.900000E-01   1.00800           0
      5961 MEMB     52       CHL1     H2B      HGA2     0.900000E-01   1.00800           0
      5962 MEMB     52       CHL1     C20      CTL1    -0.900000E-01   12.0110           0
      5963 MEMB     52       CHL1     H20      HAL1     0.900000E-01   1.00800           0
      5964 MEMB     52       CHL1     C21      CTL3    -0.270000       12.0110           0
      5965 MEMB     52       CHL1     H21A     HAL3     0.900000E-01   1.00800           0
      5966 MEMB     52       CHL1     H21B     HAL3     0.900000E-01   1.00800           0
      5967 MEMB     52       CHL1     H21C     HAL3     0.900000E-01   1.00800           0
      5968 MEMB     52       CHL1     C22      CTL2    -0.180000       12.0110           0
      5969 MEMB     52       CHL1     H22A     HAL2     0.900000E-01   1.00800           0
      5970 MEMB     52       CHL1     H22B     HAL2     0.900000E-01   1.00800           0
      5971 MEMB     52       CHL1     C23      CTL2    -0.180000       12.0110           0
      5972 MEMB     52       CHL1     H23A     HAL2     0.900000E-01   1.00800           0
      5973 MEMB     52       CHL1     H23B     HAL2     0.900000E-01   1.00800           0
      5974 MEMB     52       CHL1     C24      CTL2    -0.180000       12.0110           0
      5975 MEMB     52       CHL1     H24A     HAL2     0.900000E-01   1.00800           0
      5976 MEMB     52       CHL1     H24B     HAL2     0.900000E-01   1.00800           0
      5977 MEMB     52       CHL1     C25      CTL1    -0.900000E-01   12.0110           0
      5978 MEMB     52       CHL1     H25      HAL1     0.900000E-01   1.00800           0
      5979 MEMB     52       CHL1     C26      CTL3    -0.270000       12.0110           0
      5980 MEMB     52       CHL1     H26A     HAL3     0.900000E-01   1.00800           0
      5981 MEMB     52       CHL1     H26B     HAL3     0.900000E-01   1.00800           0
      5982 MEMB     52       CHL1     H26C     HAL3     0.900000E-01   1.00800           0
      5983 MEMB     52       CHL1     C27      CTL3    -0.270000       12.0110           0
      5984 MEMB     52       CHL1     H27A     HAL3     0.900000E-01   1.00800           0
      5985 MEMB     52       CHL1     H27B     HAL3     0.900000E-01   1.00800           0
      5986 MEMB     52       CHL1     H27C     HAL3     0.900000E-01   1.00800           0
      5987 MEMB     53       SAPC     N        NTL     -0.600000       14.0070           0
      5988 MEMB     53       SAPC     C12      CTL2    -0.100000       12.0110           0
      5989 MEMB     53       SAPC     H12A     HL       0.250000       1.00800           0
      5990 MEMB     53       SAPC     H12B     HL       0.250000       1.00800           0
      5991 MEMB     53       SAPC     C13      CTL5    -0.350000       12.0110           0
      5992 MEMB     53       SAPC     H13A     HL       0.250000       1.00800           0
      5993 MEMB     53       SAPC     H13B     HL       0.250000       1.00800           0
      5994 MEMB     53       SAPC     H13C     HL       0.250000       1.00800           0
      5995 MEMB     53       SAPC     C14      CTL5    -0.350000       12.0110           0
      5996 MEMB     53       SAPC     H14A     HL       0.250000       1.00800           0
      5997 MEMB     53       SAPC     H14B     HL       0.250000       1.00800           0
      5998 MEMB     53       SAPC     H14C     HL       0.250000       1.00800           0
      5999 MEMB     53       SAPC     C15      CTL5    -0.350000       12.0110           0
      6000 MEMB     53       SAPC     H15A     HL       0.250000       1.00800           0
      6001 MEMB     53       SAPC     H15B     HL       0.250000       1.00800           0
      6002 MEMB     53       SAPC     H15C     HL       0.250000       1.00800           0
      6003 MEMB     53       SAPC     C11      CTL2    -0.800000E-01   12.0110           0
      6004 MEMB     53       SAPC     H11A     HAL2     0.900000E-01   1.00800           0
      6005 MEMB     53       SAPC     H11B     HAL2     0.900000E-01   1.00800           0
      6006 MEMB     53       SAPC     P        PL        1.50000       30.9740           0
      6007 MEMB     53       SAPC     O13      O2L     -0.780000       15.9994           0
      6008 MEMB     53       SAPC     O14      O2L     -0.780000       15.9994           0
      6009 MEMB     53       SAPC     O12      OSLP    -0.570000       15.9994           0
      6010 MEMB     53       SAPC     O11      OSLP    -0.570000       15.9994           0
      6011 MEMB     53       SAPC     C1       CTL2    -0.800000E-01   12.0110           0
      6012 MEMB     53       SAPC     HA       HAL2     0.900000E-01   1.00800           0
      6013 MEMB     53       SAPC     HB       HAL2     0.900000E-01   1.00800           0
      6014 MEMB     53       SAPC     C2       CTL1     0.170000       12.0110           0
      6015 MEMB     53       SAPC     HS       HAL1     0.900000E-01   1.00800           0
      6016 MEMB     53       SAPC     O21      OSL     -0.490000       15.9994           0
      6017 MEMB     53       SAPC     C21      CL       0.900000       12.0110           0
      6018 MEMB     53       SAPC     O22      OBL     -0.630000       15.9994           0
      6019 MEMB     53       SAPC     C22      CTL2    -0.220000       12.0110           0
      6020 MEMB     53       SAPC     H2R      HAL2     0.900000E-01   1.00800           0
      6021 MEMB     53       SAPC     H2S      HAL2     0.900000E-01   1.00800           0
      6022 MEMB     53       SAPC     C3       CTL2     0.800000E-01   12.0110           0
      6023 MEMB     53       SAPC     HX       HAL2     0.900000E-01   1.00800           0
      6024 MEMB     53       SAPC     HY       HAL2     0.900000E-01   1.00800           0
      6025 MEMB     53       SAPC     O31      OSL     -0.490000       15.9994           0
      6026 MEMB     53       SAPC     C31      CL       0.900000       12.0110           0
      6027 MEMB     53       SAPC     O32      OBL     -0.630000       15.9994           0
      6028 MEMB     53       SAPC     C32      CTL2    -0.220000       12.0110           0
      6029 MEMB     53       SAPC     H2X      HAL2     0.900000E-01   1.00800           0
      6030 MEMB     53       SAPC     H2Y      HAL2     0.900000E-01   1.00800           0
      6031 MEMB     53       SAPC     C23      CTL2    -0.180000       12.0110           0
      6032 MEMB     53       SAPC     H3R      HAL2     0.900000E-01   1.00800           0
      6033 MEMB     53       SAPC     H3S      HAL2     0.900000E-01   1.00800           0
      6034 MEMB     53       SAPC     C24      CTL2    -0.180000       12.0110           0
      6035 MEMB     53       SAPC     H4R      HAL2     0.900000E-01   1.00800           0
      6036 MEMB     53       SAPC     H4S      HAL2     0.900000E-01   1.00800           0
      6037 MEMB     53       SAPC     C25      CEL1    -0.150000       12.0110           0
      6038 MEMB     53       SAPC     H5R      HEL1     0.150000       1.00800           0
      6039 MEMB     53       SAPC     C26      CEL1    -0.150000       12.0110           0
      6040 MEMB     53       SAPC     H6R      HEL1     0.150000       1.00800           0
      6041 MEMB     53       SAPC     C27      CTL2    -0.180000       12.0110           0
      6042 MEMB     53       SAPC     H7R      HAL2     0.900000E-01   1.00800           0
      6043 MEMB     53       SAPC     H7S      HAL2     0.900000E-01   1.00800           0
      6044 MEMB     53       SAPC     C28      CEL1    -0.150000       12.0110           0
      6045 MEMB     53       SAPC     H8R      HEL1     0.150000       1.00800           0
      6046 MEMB     53       SAPC     C29      CEL1    -0.150000       12.0110           0
      6047 MEMB     53       SAPC     H9R      HEL1     0.150000       1.00800           0
      6048 MEMB     53       SAPC     C210     CTL2    -0.180000       12.0110           0
      6049 MEMB     53       SAPC     H10R     HAL2     0.900000E-01   1.00800           0
      6050 MEMB     53       SAPC     H10S     HAL2     0.900000E-01   1.00800           0
      6051 MEMB     53       SAPC     C211     CEL1    -0.150000       12.0110           0
      6052 MEMB     53       SAPC     H11R     HEL1     0.150000       1.00800           0
      6053 MEMB     53       SAPC     C212     CEL1    -0.150000       12.0110           0
      6054 MEMB     53       SAPC     H12R     HEL1     0.150000       1.00800           0
      6055 MEMB     53       SAPC     C213     CTL2    -0.180000       12.0110           0
      6056 MEMB     53       SAPC     H13R     HAL2     0.900000E-01   1.00800           0
      6057 MEMB     53       SAPC     H13S     HAL2     0.900000E-01   1.00800           0
      6058 MEMB     53       SAPC     C214     CEL1    -0.150000       12.0110           0
      6059 MEMB     53       SAPC     H14R     HEL1     0.150000       1.00800           0
      6060 MEMB     53       SAPC     C215     CEL1    -0.150000       12.0110           0
      6061 MEMB     53       SAPC     H15R     HEL1     0.150000       1.00800           0
      6062 MEMB     53       SAPC     C216     CTL2    -0.180000       12.0110           0
      6063 MEMB     53       SAPC     H16R     HAL2     0.900000E-01   1.00800           0
      6064 MEMB     53       SAPC     H16S     HAL2     0.900000E-01   1.00800           0
      6065 MEMB     53       SAPC     C217     CTL2    -0.180000       12.0110           0
      6066 MEMB     53       SAPC     H17R     HAL2     0.900000E-01   1.00800           0
      6067 MEMB     53       SAPC     H17S     HAL2     0.900000E-01   1.00800           0
      6068 MEMB     53       SAPC     C218     CTL2    -0.270000       12.0110           0
      6069 MEMB     53       SAPC     H18R     HAL2     0.900000E-01   1.00800           0
      6070 MEMB     53       SAPC     H18S     HAL2     0.900000E-01   1.00800           0
      6071 MEMB     53       SAPC     C219     CTL2    -0.180000       12.0110           0
      6072 MEMB     53       SAPC     H19R     HAL2     0.900000E-01   1.00800           0
      6073 MEMB     53       SAPC     H19S     HAL2     0.900000E-01   1.00800           0
      6074 MEMB     53       SAPC     C220     CTL3    -0.180000       12.0110           0
      6075 MEMB     53       SAPC     H20R     HAL3     0.900000E-01   1.00800           0
      6076 MEMB     53       SAPC     H20S     HAL3     0.900000E-01   1.00800           0
      6077 MEMB     53       SAPC     H20T     HAL3     0.900000E-01   1.00800           0
      6078 MEMB     53       SAPC     C33      CTL2    -0.180000       12.0110           0
      6079 MEMB     53       SAPC     H3X      HAL2     0.900000E-01   1.00800           0
      6080 MEMB     53       SAPC     H3Y      HAL2     0.900000E-01   1.00800           0
      6081 MEMB     53       SAPC     C34      CTL2    -0.180000       12.0110           0
      6082 MEMB     53       SAPC     H4X      HAL2     0.900000E-01   1.00800           0
      6083 MEMB     53       SAPC     H4Y      HAL2     0.900000E-01   1.00800           0
      6084 MEMB     53       SAPC     C35      CTL2    -0.180000       12.0110           0
      6085 MEMB     53       SAPC     H5X      HAL2     0.900000E-01   1.00800           0
      6086 MEMB     53       SAPC     H5Y      HAL2     0.900000E-01   1.00800           0
      6087 MEMB     53       SAPC     C36      CTL2    -0.180000       12.0110           0
      6088 MEMB     53       SAPC     H6X      HAL2     0.900000E-01   1.00800           0
      6089 MEMB     53       SAPC     H6Y      HAL2     0.900000E-01   1.00800           0
      6090 MEMB     53       SAPC     C37      CTL2    -0.180000       12.0110           0
      6091 MEMB     53       SAPC     H7X      HAL2     0.900000E-01   1.00800           0
      6092 MEMB     53       SAPC     H7Y      HAL2     0.900000E-01   1.00800           0
      6093 MEMB     53       SAPC     C38      CTL2    -0.180000       12.0110           0
      6094 MEMB     53       SAPC     H8X      HAL2     0.900000E-01   1.00800           0
      6095 MEMB     53       SAPC     H8Y      HAL2     0.900000E-01   1.00800           0
      6096 MEMB     53       SAPC     C39      CTL2    -0.180000       12.0110           0
      6097 MEMB     53       SAPC     H9X      HAL2     0.900000E-01   1.00800           0
      6098 MEMB     53       SAPC     H9Y      HAL2     0.900000E-01   1.00800           0
      6099 MEMB     53       SAPC     C310     CTL2    -0.180000       12.0110           0
      6100 MEMB     53       SAPC     H10X     HAL2     0.900000E-01   1.00800           0
      6101 MEMB     53       SAPC     H10Y     HAL2     0.900000E-01   1.00800           0
      6102 MEMB     53       SAPC     C311     CTL2    -0.180000       12.0110           0
      6103 MEMB     53       SAPC     H11X     HAL2     0.900000E-01   1.00800           0
      6104 MEMB     53       SAPC     H11Y     HAL2     0.900000E-01   1.00800           0
      6105 MEMB     53       SAPC     C312     CTL2    -0.180000       12.0110           0
      6106 MEMB     53       SAPC     H12X     HAL2     0.900000E-01   1.00800           0
      6107 MEMB     53       SAPC     H12Y     HAL2     0.900000E-01   1.00800           0
      6108 MEMB     53       SAPC     C313     CTL2    -0.180000       12.0110           0
      6109 MEMB     53       SAPC     H13X     HAL2     0.900000E-01   1.00800           0
      6110 MEMB     53       SAPC     H13Y     HAL2     0.900000E-01   1.00800           0
      6111 MEMB     53       SAPC     C314     CTL2    -0.180000       12.0110           0
      6112 MEMB     53       SAPC     H14X     HAL2     0.900000E-01   1.00800           0
      6113 MEMB     53       SAPC     H14Y     HAL2     0.900000E-01   1.00800           0
      6114 MEMB     53       SAPC     C315     CTL2    -0.180000       12.0110           0
      6115 MEMB     53       SAPC     H15X     HAL2     0.900000E-01   1.00800           0
      6116 MEMB     53       SAPC     H15Y     HAL2     0.900000E-01   1.00800           0
      6117 MEMB     53       SAPC     C316     CTL2    -0.180000       12.0110           0
      6118 MEMB     53       SAPC     H16X     HAL2     0.900000E-01   1.00800           0
      6119 MEMB     53       SAPC     H16Y     HAL2     0.900000E-01   1.00800           0
      6120 MEMB     53       SAPC     C317     CTL2    -0.180000       12.0110           0
      6121 MEMB     53       SAPC     H17X     HAL2     0.900000E-01   1.00800           0
      6122 MEMB     53       SAPC     H17Y     HAL2     0.900000E-01   1.00800           0
      6123 MEMB     53       SAPC     C318     CTL3    -0.270000       12.0110           0
      6124 MEMB     53       SAPC     H18X     HAL3     0.900000E-01   1.00800           0
      6125 MEMB     53       SAPC     H18Y     HAL3     0.900000E-01   1.00800           0
      6126 MEMB     53       SAPC     H18Z     HAL3     0.900000E-01   1.00800           0
      6127 MEMB     54       SAPS     N        NH3L    -0.300000       14.0070           0
      6128 MEMB     54       SAPS     HN1      HCL      0.330000       1.00800           0
      6129 MEMB     54       SAPS     HN2      HCL      0.330000       1.00800           0
      6130 MEMB     54       SAPS     HN3      HCL      0.330000       1.00800           0
      6131 MEMB     54       SAPS     C12      CTL1     0.210000       12.0110           0
      6132 MEMB     54       SAPS     H12A     HBL      0.100000       1.00800           0
      6133 MEMB     54       SAPS     C13      CCL      0.340000       12.0110           0
      6134 MEMB     54       SAPS     O13A     OCL     -0.670000       15.9994           0
      6135 MEMB     54       SAPS     O13B     OCL     -0.670000       15.9994           0
      6136 MEMB     54       SAPS     C11      CTL2    -0.800000E-01   12.0110           0
      6137 MEMB     54       SAPS     H11A     HAL2     0.900000E-01   1.00800           0
      6138 MEMB     54       SAPS     H11B     HAL2     0.900000E-01   1.00800           0
      6139 MEMB     54       SAPS     P        PL        1.50000       30.9740           0
      6140 MEMB     54       SAPS     O13      O2L     -0.780000       15.9994           0
      6141 MEMB     54       SAPS     O14      O2L     -0.780000       15.9994           0
      6142 MEMB     54       SAPS     O12      OSLP    -0.570000       15.9994           0
      6143 MEMB     54       SAPS     O11      OSLP    -0.570000       15.9994           0
      6144 MEMB     54       SAPS     C1       CTL2    -0.800000E-01   12.0110           0
      6145 MEMB     54       SAPS     HA       HAL2     0.900000E-01   1.00800           0
      6146 MEMB     54       SAPS     HB       HAL2     0.900000E-01   1.00800           0
      6147 MEMB     54       SAPS     C2       CTL1     0.170000       12.0110           0
      6148 MEMB     54       SAPS     HS       HAL1     0.900000E-01   1.00800           0
      6149 MEMB     54       SAPS     O21      OSL     -0.490000       15.9994           0
      6150 MEMB     54       SAPS     C21      CL       0.900000       12.0110           0
      6151 MEMB     54       SAPS     O22      OBL     -0.630000       15.9994           0
      6152 MEMB     54       SAPS     C22      CTL2    -0.220000       12.0110           0
      6153 MEMB     54       SAPS     H2R      HAL2     0.900000E-01   1.00800           0
      6154 MEMB     54       SAPS     H2S      HAL2     0.900000E-01   1.00800           0
      6155 MEMB     54       SAPS     C3       CTL2     0.800000E-01   12.0110           0
      6156 MEMB     54       SAPS     HX       HAL2     0.900000E-01   1.00800           0
      6157 MEMB     54       SAPS     HY       HAL2     0.900000E-01   1.00800           0
      6158 MEMB     54       SAPS     O31      OSL     -0.490000       15.9994           0
      6159 MEMB     54       SAPS     C31      CL       0.900000       12.0110           0
      6160 MEMB     54       SAPS     O32      OBL     -0.630000       15.9994           0
      6161 MEMB     54       SAPS     C32      CTL2    -0.220000       12.0110           0
      6162 MEMB     54       SAPS     H2X      HAL2     0.900000E-01   1.00800           0
      6163 MEMB     54       SAPS     H2Y      HAL2     0.900000E-01   1.00800           0
      6164 MEMB     54       SAPS     C23      CTL2    -0.180000       12.0110           0
      6165 MEMB     54       SAPS     H3R      HAL2     0.900000E-01   1.00800           0
      6166 MEMB     54       SAPS     H3S      HAL2     0.900000E-01   1.00800           0
      6167 MEMB     54       SAPS     C24      CTL2    -0.180000       12.0110           0
      6168 MEMB     54       SAPS     H4R      HAL2     0.900000E-01   1.00800           0
      6169 MEMB     54       SAPS     H4S      HAL2     0.900000E-01   1.00800           0
      6170 MEMB     54       SAPS     C25      CEL1    -0.150000       12.0110           0
      6171 MEMB     54       SAPS     H5R      HEL1     0.150000       1.00800           0
      6172 MEMB     54       SAPS     C26      CEL1    -0.150000       12.0110           0
      6173 MEMB     54       SAPS     H6R      HEL1     0.150000       1.00800           0
      6174 MEMB     54       SAPS     C27      CTL2    -0.180000       12.0110           0
      6175 MEMB     54       SAPS     H7R      HAL2     0.900000E-01   1.00800           0
      6176 MEMB     54       SAPS     H7S      HAL2     0.900000E-01   1.00800           0
      6177 MEMB     54       SAPS     C28      CEL1    -0.150000       12.0110           0
      6178 MEMB     54       SAPS     H8R      HEL1     0.150000       1.00800           0
      6179 MEMB     54       SAPS     C29      CEL1    -0.150000       12.0110           0
      6180 MEMB     54       SAPS     H9R      HEL1     0.150000       1.00800           0
      6181 MEMB     54       SAPS     C210     CTL2    -0.180000       12.0110           0
      6182 MEMB     54       SAPS     H10R     HAL2     0.900000E-01   1.00800           0
      6183 MEMB     54       SAPS     H10S     HAL2     0.900000E-01   1.00800           0
      6184 MEMB     54       SAPS     C211     CEL1    -0.150000       12.0110           0
      6185 MEMB     54       SAPS     H11R     HEL1     0.150000       1.00800           0
      6186 MEMB     54       SAPS     C212     CEL1    -0.150000       12.0110           0
      6187 MEMB     54       SAPS     H12R     HEL1     0.150000       1.00800           0
      6188 MEMB     54       SAPS     C213     CTL2    -0.180000       12.0110           0
      6189 MEMB     54       SAPS     H13R     HAL2     0.900000E-01   1.00800           0
      6190 MEMB     54       SAPS     H13S     HAL2     0.900000E-01   1.00800           0
      6191 MEMB     54       SAPS     C214     CEL1    -0.150000       12.0110           0
      6192 MEMB     54       SAPS     H14R     HEL1     0.150000       1.00800           0
      6193 MEMB     54       SAPS     C215     CEL1    -0.150000       12.0110           0
      6194 MEMB     54       SAPS     H15R     HEL1     0.150000       1.00800           0
      6195 MEMB     54       SAPS     C216     CTL2    -0.180000       12.0110           0
      6196 MEMB     54       SAPS     H16R     HAL2     0.900000E-01   1.00800           0
      6197 MEMB     54       SAPS     H16S     HAL2     0.900000E-01   1.00800           0
      6198 MEMB     54       SAPS     C217     CTL2    -0.180000       12.0110           0
      6199 MEMB     54       SAPS     H17R     HAL2     0.900000E-01   1.00800           0
      6200 MEMB     54       SAPS     H17S     HAL2     0.900000E-01   1.00800           0
      6201 MEMB     54       SAPS     C218     CTL2    -0.180000       12.0110           0
      6202 MEMB     54       SAPS     H18R     HAL2     0.900000E-01   1.00800           0
      6203 MEMB     54       SAPS     H18S     HAL2     0.900000E-01   1.00800           0
      6204 MEMB     54       SAPS     C219     CTL2    -0.180000       12.0110           0
      6205 MEMB     54       SAPS     H19R     HAL2     0.900000E-01   1.00800           0
      6206 MEMB     54       SAPS     H19S     HAL2     0.900000E-01   1.00800           0
      6207 MEMB     54       SAPS     C220     CTL3    -0.270000       12.0110           0
      6208 MEMB     54       SAPS     H20R     HAL3     0.900000E-01   1.00800           0
      6209 MEMB     54       SAPS     H20S     HAL3     0.900000E-01   1.00800           0
      6210 MEMB     54       SAPS     H20T     HAL3     0.900000E-01   1.00800           0
      6211 MEMB     54       SAPS     C33      CTL2    -0.180000       12.0110           0
      6212 MEMB     54       SAPS     H3X      HAL2     0.900000E-01   1.00800           0
      6213 MEMB     54       SAPS     H3Y      HAL2     0.900000E-01   1.00800           0
      6214 MEMB     54       SAPS     C34      CTL2    -0.180000       12.0110           0
      6215 MEMB     54       SAPS     H4X      HAL2     0.900000E-01   1.00800           0
      6216 MEMB     54       SAPS     H4Y      HAL2     0.900000E-01   1.00800           0
      6217 MEMB     54       SAPS     C35      CTL2    -0.180000       12.0110           0
      6218 MEMB     54       SAPS     H5X      HAL2     0.900000E-01   1.00800           0
      6219 MEMB     54       SAPS     H5Y      HAL2     0.900000E-01   1.00800           0
      6220 MEMB     54       SAPS     C36      CTL2    -0.180000       12.0110           0
      6221 MEMB     54       SAPS     H6X      HAL2     0.900000E-01   1.00800           0
      6222 MEMB     54       SAPS     H6Y      HAL2     0.900000E-01   1.00800           0
      6223 MEMB     54       SAPS     C37      CTL2    -0.180000       12.0110           0
      6224 MEMB     54       SAPS     H7X      HAL2     0.900000E-01   1.00800           0
      6225 MEMB     54       SAPS     H7Y      HAL2     0.900000E-01   1.00800           0
      6226 MEMB     54       SAPS     C38      CTL2    -0.180000       12.0110           0
      6227 MEMB     54       SAPS     H8X      HAL2     0.900000E-01   1.00800           0
      6228 MEMB     54       SAPS     H8Y      HAL2     0.900000E-01   1.00800           0
      6229 MEMB     54       SAPS     C39      CTL2    -0.180000       12.0110           0
      6230 MEMB     54       SAPS     H9X      HAL2     0.900000E-01   1.00800           0
      6231 MEMB     54       SAPS     H9Y      HAL2     0.900000E-01   1.00800           0
      6232 MEMB     54       SAPS     C310     CTL2    -0.180000       12.0110           0
      6233 MEMB     54       SAPS     H10X     HAL2     0.900000E-01   1.00800           0
      6234 MEMB     54       SAPS     H10Y     HAL2     0.900000E-01   1.00800           0
      6235 MEMB     54       SAPS     C311     CTL2    -0.180000       12.0110           0
      6236 MEMB     54       SAPS     H11X     HAL2     0.900000E-01   1.00800           0
      6237 MEMB     54       SAPS     H11Y     HAL2     0.900000E-01   1.00800           0
      6238 MEMB     54       SAPS     C312     CTL2    -0.180000       12.0110           0
      6239 MEMB     54       SAPS     H12X     HAL2     0.900000E-01   1.00800           0
      6240 MEMB     54       SAPS     H12Y     HAL2     0.900000E-01   1.00800           0
      6241 MEMB     54       SAPS     C313     CTL2    -0.180000       12.0110           0
      6242 MEMB     54       SAPS     H13X     HAL2     0.900000E-01   1.00800           0
      6243 MEMB     54       SAPS     H13Y     HAL2     0.900000E-01   1.00800           0
      6244 MEMB     54       SAPS     C314     CTL2    -0.180000       12.0110           0
      6245 MEMB     54       SAPS     H14X     HAL2     0.900000E-01   1.00800           0
      6246 MEMB     54       SAPS     H14Y     HAL2     0.900000E-01   1.00800           0
      6247 MEMB     54       SAPS     C315     CTL2    -0.180000       12.0110           0
      6248 MEMB     54       SAPS     H15X     HAL2     0.900000E-01   1.00800           0
      6249 MEMB     54       SAPS     H15Y     HAL2     0.900000E-01   1.00800           0
      6250 MEMB     54       SAPS     C316     CTL2    -0.180000       12.0110           0
      6251 MEMB     54       SAPS     H16X     HAL2     0.900000E-01   1.00800           0
      6252 MEMB     54       SAPS     H16Y     HAL2     0.900000E-01   1.00800           0
      6253 MEMB     54       SAPS     C317     CTL2    -0.180000       12.0110           0
      6254 MEMB     54       SAPS     H17X     HAL2     0.900000E-01   1.00800           0
      6255 MEMB     54       SAPS     H17Y     HAL2     0.900000E-01   1.00800           0
      6256 MEMB     54       SAPS     C318     CTL3    -0.270000       12.0110           0
      6257 MEMB     54       SAPS     H18X     HAL3     0.900000E-01   1.00800           0
      6258 MEMB     54       SAPS     H18Y     HAL3     0.900000E-01   1.00800           0
      6259 MEMB     54       SAPS     H18Z     HAL3     0.900000E-01   1.00800           0
      6260 MEMB     55       SLPC     N        NTL     -0.600000       14.0070           0
      6261 MEMB     55       SLPC     C13      CTL5    -0.350000       12.0110           0
      6262 MEMB     55       SLPC     H13A     HL       0.250000       1.00800           0
      6263 MEMB     55       SLPC     H13B     HL       0.250000       1.00800           0
      6264 MEMB     55       SLPC     H13C     HL       0.250000       1.00800           0
      6265 MEMB     55       SLPC     C14      CTL5    -0.350000       12.0110           0
      6266 MEMB     55       SLPC     H14A     HL       0.250000       1.00800           0
      6267 MEMB     55       SLPC     H14B     HL       0.250000       1.00800           0
      6268 MEMB     55       SLPC     H14C     HL       0.250000       1.00800           0
      6269 MEMB     55       SLPC     C15      CTL5    -0.350000       12.0110           0
      6270 MEMB     55       SLPC     H15A     HL       0.250000       1.00800           0
      6271 MEMB     55       SLPC     H15B     HL       0.250000       1.00800           0
      6272 MEMB     55       SLPC     H15C     HL       0.250000       1.00800           0
      6273 MEMB     55       SLPC     C12      CTL2    -0.100000       12.0110           0
      6274 MEMB     55       SLPC     H12A     HL       0.250000       1.00800           0
      6275 MEMB     55       SLPC     H12B     HL       0.250000       1.00800           0
      6276 MEMB     55       SLPC     C11      CTL2    -0.800000E-01   12.0110           0
      6277 MEMB     55       SLPC     H11A     HAL2     0.900000E-01   1.00800           0
      6278 MEMB     55       SLPC     H11B     HAL2     0.900000E-01   1.00800           0
      6279 MEMB     55       SLPC     P        PL        1.50000       30.9740           0
      6280 MEMB     55       SLPC     O13      O2L     -0.780000       15.9994           0
      6281 MEMB     55       SLPC     O14      O2L     -0.780000       15.9994           0
      6282 MEMB     55       SLPC     O12      OSLP    -0.570000       15.9994           0
      6283 MEMB     55       SLPC     O11      OSLP    -0.570000       15.9994           0
      6284 MEMB     55       SLPC     C1       CTL2    -0.800000E-01   12.0110           0
      6285 MEMB     55       SLPC     HA       HAL2     0.900000E-01   1.00800           0
      6286 MEMB     55       SLPC     HB       HAL2     0.900000E-01   1.00800           0
      6287 MEMB     55       SLPC     C2       CTL1     0.170000       12.0110           0
      6288 MEMB     55       SLPC     HS       HAL1     0.900000E-01   1.00800           0
      6289 MEMB     55       SLPC     O21      OSL     -0.490000       15.9994           0
      6290 MEMB     55       SLPC     C21      CL       0.900000       12.0110           0
      6291 MEMB     55       SLPC     O22      OBL     -0.630000       15.9994           0
      6292 MEMB     55       SLPC     C22      CTL2    -0.220000       12.0110           0
      6293 MEMB     55       SLPC     H2R      HAL2     0.900000E-01   1.00800           0
      6294 MEMB     55       SLPC     H2S      HAL2     0.900000E-01   1.00800           0
      6295 MEMB     55       SLPC     C3       CTL2     0.800000E-01   12.0110           0
      6296 MEMB     55       SLPC     HX       HAL2     0.900000E-01   1.00800           0
      6297 MEMB     55       SLPC     HY       HAL2     0.900000E-01   1.00800           0
      6298 MEMB     55       SLPC     O31      OSL     -0.490000       15.9994           0
      6299 MEMB     55       SLPC     C31      CL       0.900000       12.0110           0
      6300 MEMB     55       SLPC     O32      OBL     -0.630000       15.9994           0
      6301 MEMB     55       SLPC     C32      CTL2    -0.220000       12.0110           0
      6302 MEMB     55       SLPC     H2X      HAL2     0.900000E-01   1.00800           0
      6303 MEMB     55       SLPC     H2Y      HAL2     0.900000E-01   1.00800           0
      6304 MEMB     55       SLPC     C23      CTL2    -0.180000       12.0110           0
      6305 MEMB     55       SLPC     H3R      HAL2     0.900000E-01   1.00800           0
      6306 MEMB     55       SLPC     H3S      HAL2     0.900000E-01   1.00800           0
      6307 MEMB     55       SLPC     C24      CTL2    -0.180000       12.0110           0
      6308 MEMB     55       SLPC     H4R      HAL2     0.900000E-01   1.00800           0
      6309 MEMB     55       SLPC     H4S      HAL2     0.900000E-01   1.00800           0
      6310 MEMB     55       SLPC     C25      CTL2    -0.180000       12.0110           0
      6311 MEMB     55       SLPC     H5R      HAL2     0.900000E-01   1.00800           0
      6312 MEMB     55       SLPC     H5S      HAL2     0.900000E-01   1.00800           0
      6313 MEMB     55       SLPC     C26      CTL2    -0.180000       12.0110           0
      6314 MEMB     55       SLPC     H6R      HAL2     0.900000E-01   1.00800           0
      6315 MEMB     55       SLPC     H6S      HAL2     0.900000E-01   1.00800           0
      6316 MEMB     55       SLPC     C27      CTL2    -0.180000       12.0110           0
      6317 MEMB     55       SLPC     H7R      HAL2     0.900000E-01   1.00800           0
      6318 MEMB     55       SLPC     H7S      HAL2     0.900000E-01   1.00800           0
      6319 MEMB     55       SLPC     C28      CTL2    -0.180000       12.0110           0
      6320 MEMB     55       SLPC     H8R      HAL2     0.900000E-01   1.00800           0
      6321 MEMB     55       SLPC     H8S      HAL2     0.900000E-01   1.00800           0
      6322 MEMB     55       SLPC     C29      CEL1    -0.150000       12.0110           0
      6323 MEMB     55       SLPC     H9R      HEL1     0.150000       1.00800           0
      6324 MEMB     55       SLPC     C210     CEL1    -0.150000       12.0110           0
      6325 MEMB     55       SLPC     H10R     HEL1     0.150000       1.00800           0
      6326 MEMB     55       SLPC     C211     CTL2    -0.180000       12.0110           0
      6327 MEMB     55       SLPC     H11R     HAL2     0.900000E-01   1.00800           0
      6328 MEMB     55       SLPC     H11S     HAL2     0.900000E-01   1.00800           0
      6329 MEMB     55       SLPC     C212     CEL1    -0.150000       12.0110           0
      6330 MEMB     55       SLPC     H12R     HEL1     0.150000       1.00800           0
      6331 MEMB     55       SLPC     C213     CEL1    -0.150000       12.0110           0
      6332 MEMB     55       SLPC     H13R     HEL1     0.150000       1.00800           0
      6333 MEMB     55       SLPC     C214     CTL2    -0.180000       12.0110           0
      6334 MEMB     55       SLPC     H14R     HAL2     0.900000E-01   1.00800           0
      6335 MEMB     55       SLPC     H14S     HAL2     0.900000E-01   1.00800           0
      6336 MEMB     55       SLPC     C215     CTL2    -0.180000       12.0110           0
      6337 MEMB     55       SLPC     H15R     HAL2     0.900000E-01   1.00800           0
      6338 MEMB     55       SLPC     H15S     HAL2     0.900000E-01   1.00800           0
      6339 MEMB     55       SLPC     C216     CTL2    -0.180000       12.0110           0
      6340 MEMB     55       SLPC     H16R     HAL2     0.900000E-01   1.00800           0
      6341 MEMB     55       SLPC     H16S     HAL2     0.900000E-01   1.00800           0
      6342 MEMB     55       SLPC     C217     CTL2    -0.180000       12.0110           0
      6343 MEMB     55       SLPC     H17R     HAL2     0.900000E-01   1.00800           0
      6344 MEMB     55       SLPC     H17S     HAL2     0.900000E-01   1.00800           0
      6345 MEMB     55       SLPC     C218     CTL3    -0.270000       12.0110           0
      6346 MEMB     55       SLPC     H18R     HAL3     0.900000E-01   1.00800           0
      6347 MEMB     55       SLPC     H18S     HAL3     0.900000E-01   1.00800           0
      6348 MEMB     55       SLPC     H18T     HAL3     0.900000E-01   1.00800           0
      6349 MEMB     55       SLPC     C33      CTL2    -0.180000       12.0110           0
      6350 MEMB     55       SLPC     H3X      HAL2     0.900000E-01   1.00800           0
      6351 MEMB     55       SLPC     H3Y      HAL2     0.900000E-01   1.00800           0
      6352 MEMB     55       SLPC     C34      CTL2    -0.180000       12.0110           0
      6353 MEMB     55       SLPC     H4X      HAL2     0.900000E-01   1.00800           0
      6354 MEMB     55       SLPC     H4Y      HAL2     0.900000E-01   1.00800           0
      6355 MEMB     55       SLPC     C35      CTL2    -0.180000       12.0110           0
      6356 MEMB     55       SLPC     H5X      HAL2     0.900000E-01   1.00800           0
      6357 MEMB     55       SLPC     H5Y      HAL2     0.900000E-01   1.00800           0
      6358 MEMB     55       SLPC     C36      CTL2    -0.180000       12.0110           0
      6359 MEMB     55       SLPC     H6X      HAL2     0.900000E-01   1.00800           0
      6360 MEMB     55       SLPC     H6Y      HAL2     0.900000E-01   1.00800           0
      6361 MEMB     55       SLPC     C37      CTL2    -0.180000       12.0110           0
      6362 MEMB     55       SLPC     H7X      HAL2     0.900000E-01   1.00800           0
      6363 MEMB     55       SLPC     H7Y      HAL2     0.900000E-01   1.00800           0
      6364 MEMB     55       SLPC     C38      CTL2    -0.180000       12.0110           0
      6365 MEMB     55       SLPC     H8X      HAL2     0.900000E-01   1.00800           0
      6366 MEMB     55       SLPC     H8Y      HAL2     0.900000E-01   1.00800           0
      6367 MEMB     55       SLPC     C39      CTL2    -0.180000       12.0110           0
      6368 MEMB     55       SLPC     H9X      HAL2     0.900000E-01   1.00800           0
      6369 MEMB     55       SLPC     H9Y      HAL2     0.900000E-01   1.00800           0
      6370 MEMB     55       SLPC     C310     CTL2    -0.180000       12.0110           0
      6371 MEMB     55       SLPC     H10X     HAL2     0.900000E-01   1.00800           0
      6372 MEMB     55       SLPC     H10Y     HAL2     0.900000E-01   1.00800           0
      6373 MEMB     55       SLPC     C311     CTL2    -0.180000       12.0110           0
      6374 MEMB     55       SLPC     H11X     HAL2     0.900000E-01   1.00800           0
      6375 MEMB     55       SLPC     H11Y     HAL2     0.900000E-01   1.00800           0
      6376 MEMB     55       SLPC     C312     CTL2    -0.180000       12.0110           0
      6377 MEMB     55       SLPC     H12X     HAL2     0.900000E-01   1.00800           0
      6378 MEMB     55       SLPC     H12Y     HAL2     0.900000E-01   1.00800           0
      6379 MEMB     55       SLPC     C313     CTL2    -0.180000       12.0110           0
      6380 MEMB     55       SLPC     H13X     HAL2     0.900000E-01   1.00800           0
      6381 MEMB     55       SLPC     H13Y     HAL2     0.900000E-01   1.00800           0
      6382 MEMB     55       SLPC     C314     CTL2    -0.180000       12.0110           0
      6383 MEMB     55       SLPC     H14X     HAL2     0.900000E-01   1.00800           0
      6384 MEMB     55       SLPC     H14Y     HAL2     0.900000E-01   1.00800           0
      6385 MEMB     55       SLPC     C315     CTL2    -0.180000       12.0110           0
      6386 MEMB     55       SLPC     H15X     HAL2     0.900000E-01   1.00800           0
      6387 MEMB     55       SLPC     H15Y     HAL2     0.900000E-01   1.00800           0
      6388 MEMB     55       SLPC     C316     CTL2    -0.180000       12.0110           0
      6389 MEMB     55       SLPC     H16X     HAL2     0.900000E-01   1.00800           0
      6390 MEMB     55       SLPC     H16Y     HAL2     0.900000E-01   1.00800           0
      6391 MEMB     55       SLPC     C317     CTL2    -0.180000       12.0110           0
      6392 MEMB     55       SLPC     H17X     HAL2     0.900000E-01   1.00800           0
      6393 MEMB     55       SLPC     H17Y     HAL2     0.900000E-01   1.00800           0
      6394 MEMB     55       SLPC     C318     CTL3    -0.270000       12.0110           0
      6395 MEMB     55       SLPC     H18X     HAL3     0.900000E-01   1.00800           0
      6396 MEMB     55       SLPC     H18Y     HAL3     0.900000E-01   1.00800           0
      6397 MEMB     55       SLPC     H18Z     HAL3     0.900000E-01   1.00800           0
      6398 MEMB     56       SOPE     N        NH3L    -0.300000       14.0070           0
      6399 MEMB     56       SOPE     HN1      HCL      0.330000       1.00800           0
      6400 MEMB     56       SOPE     HN2      HCL      0.330000       1.00800           0
      6401 MEMB     56       SOPE     HN3      HCL      0.330000       1.00800           0
      6402 MEMB     56       SOPE     C12      CTL2     0.130000       12.0110           0
      6403 MEMB     56       SOPE     H12A     HAL2     0.900000E-01   1.00800           0
      6404 MEMB     56       SOPE     H12B     HAL2     0.900000E-01   1.00800           0
      6405 MEMB     56       SOPE     C11      CTL2    -0.800000E-01   12.0110           0
      6406 MEMB     56       SOPE     H11A     HAL2     0.900000E-01   1.00800           0
      6407 MEMB     56       SOPE     H11B     HAL2     0.900000E-01   1.00800           0
      6408 MEMB     56       SOPE     P        PL        1.50000       30.9740           0
      6409 MEMB     56       SOPE     O13      O2L     -0.780000       15.9994           0
      6410 MEMB     56       SOPE     O14      O2L     -0.780000       15.9994           0
      6411 MEMB     56       SOPE     O12      OSLP    -0.570000       15.9994           0
      6412 MEMB     56       SOPE     O11      OSLP    -0.570000       15.9994           0
      6413 MEMB     56       SOPE     C1       CTL2    -0.800000E-01   12.0110           0
      6414 MEMB     56       SOPE     HA       HAL2     0.900000E-01   1.00800           0
      6415 MEMB     56       SOPE     HB       HAL2     0.900000E-01   1.00800           0
      6416 MEMB     56       SOPE     C2       CTL1     0.170000       12.0110           0
      6417 MEMB     56       SOPE     HS       HAL1     0.900000E-01   1.00800           0
      6418 MEMB     56       SOPE     O21      OSL     -0.490000       15.9994           0
      6419 MEMB     56       SOPE     C21      CL       0.900000       12.0110           0
      6420 MEMB     56       SOPE     O22      OBL     -0.630000       15.9994           0
      6421 MEMB     56       SOPE     C22      CTL2    -0.220000       12.0110           0
      6422 MEMB     56       SOPE     H2R      HAL2     0.900000E-01   1.00800           0
      6423 MEMB     56       SOPE     H2S      HAL2     0.900000E-01   1.00800           0
      6424 MEMB     56       SOPE     C3       CTL2     0.800000E-01   12.0110           0
      6425 MEMB     56       SOPE     HX       HAL2     0.900000E-01   1.00800           0
      6426 MEMB     56       SOPE     HY       HAL2     0.900000E-01   1.00800           0
      6427 MEMB     56       SOPE     O31      OSL     -0.490000       15.9994           0
      6428 MEMB     56       SOPE     C31      CL       0.900000       12.0110           0
      6429 MEMB     56       SOPE     O32      OBL     -0.630000       15.9994           0
      6430 MEMB     56       SOPE     C32      CTL2    -0.220000       12.0110           0
      6431 MEMB     56       SOPE     H2X      HAL2     0.900000E-01   1.00800           0
      6432 MEMB     56       SOPE     H2Y      HAL2     0.900000E-01   1.00800           0
      6433 MEMB     56       SOPE     C23      CTL2    -0.180000       12.0110           0
      6434 MEMB     56       SOPE     H3R      HAL2     0.900000E-01   1.00800           0
      6435 MEMB     56       SOPE     H3S      HAL2     0.900000E-01   1.00800           0
      6436 MEMB     56       SOPE     C24      CTL2    -0.180000       12.0110           0
      6437 MEMB     56       SOPE     H4R      HAL2     0.900000E-01   1.00800           0
      6438 MEMB     56       SOPE     H4S      HAL2     0.900000E-01   1.00800           0
      6439 MEMB     56       SOPE     C25      CTL2    -0.180000       12.0110           0
      6440 MEMB     56       SOPE     H5R      HAL2     0.900000E-01   1.00800           0
      6441 MEMB     56       SOPE     H5S      HAL2     0.900000E-01   1.00800           0
      6442 MEMB     56       SOPE     C26      CTL2    -0.180000       12.0110           0
      6443 MEMB     56       SOPE     H6R      HAL2     0.900000E-01   1.00800           0
      6444 MEMB     56       SOPE     H6S      HAL2     0.900000E-01   1.00800           0
      6445 MEMB     56       SOPE     C27      CTL2    -0.180000       12.0110           0
      6446 MEMB     56       SOPE     H7R      HAL2     0.900000E-01   1.00800           0
      6447 MEMB     56       SOPE     H7S      HAL2     0.900000E-01   1.00800           0
      6448 MEMB     56       SOPE     C28      CTL2    -0.180000       12.0110           0
      6449 MEMB     56       SOPE     H8R      HAL2     0.900000E-01   1.00800           0
      6450 MEMB     56       SOPE     H8S      HAL2     0.900000E-01   1.00800           0
      6451 MEMB     56       SOPE     C29      CEL1    -0.150000       12.0110           0
      6452 MEMB     56       SOPE     H91      HEL1     0.150000       1.00800           0
      6453 MEMB     56       SOPE     C210     CEL1    -0.150000       12.0110           0
      6454 MEMB     56       SOPE     H101     HEL1     0.150000       1.00800           0
      6455 MEMB     56       SOPE     C211     CTL2    -0.180000       12.0110           0
      6456 MEMB     56       SOPE     H11R     HAL2     0.900000E-01   1.00800           0
      6457 MEMB     56       SOPE     H11S     HAL2     0.900000E-01   1.00800           0
      6458 MEMB     56       SOPE     C212     CTL2    -0.180000       12.0110           0
      6459 MEMB     56       SOPE     H12R     HAL2     0.900000E-01   1.00800           0
      6460 MEMB     56       SOPE     H12S     HAL2     0.900000E-01   1.00800           0
      6461 MEMB     56       SOPE     C213     CTL2    -0.180000       12.0110           0
      6462 MEMB     56       SOPE     H13R     HAL2     0.900000E-01   1.00800           0
      6463 MEMB     56       SOPE     H13S     HAL2     0.900000E-01   1.00800           0
      6464 MEMB     56       SOPE     C214     CTL2    -0.180000       12.0110           0
      6465 MEMB     56       SOPE     H14R     HAL2     0.900000E-01   1.00800           0
      6466 MEMB     56       SOPE     H14S     HAL2     0.900000E-01   1.00800           0
      6467 MEMB     56       SOPE     C215     CTL2    -0.180000       12.0110           0
      6468 MEMB     56       SOPE     H15R     HAL2     0.900000E-01   1.00800           0
      6469 MEMB     56       SOPE     H15S     HAL2     0.900000E-01   1.00800           0
      6470 MEMB     56       SOPE     C216     CTL2    -0.180000       12.0110           0
      6471 MEMB     56       SOPE     H16R     HAL2     0.900000E-01   1.00800           0
      6472 MEMB     56       SOPE     H16S     HAL2     0.900000E-01   1.00800           0
      6473 MEMB     56       SOPE     C217     CTL2    -0.180000       12.0110           0
      6474 MEMB     56       SOPE     H17R     HAL2     0.900000E-01   1.00800           0
      6475 MEMB     56       SOPE     H17S     HAL2     0.900000E-01   1.00800           0
      6476 MEMB     56       SOPE     C218     CTL3    -0.270000       12.0110           0
      6477 MEMB     56       SOPE     H18R     HAL3     0.900000E-01   1.00800           0
      6478 MEMB     56       SOPE     H18S     HAL3     0.900000E-01   1.00800           0
      6479 MEMB     56       SOPE     H18T     HAL3     0.900000E-01   1.00800           0
      6480 MEMB     56       SOPE     C33      CTL2    -0.180000       12.0110           0
      6481 MEMB     56       SOPE     H3X      HAL2     0.900000E-01   1.00800           0
      6482 MEMB     56       SOPE     H3Y      HAL2     0.900000E-01   1.00800           0
      6483 MEMB     56       SOPE     C34      CTL2    -0.180000       12.0110           0
      6484 MEMB     56       SOPE     H4X      HAL2     0.900000E-01   1.00800           0
      6485 MEMB     56       SOPE     H4Y      HAL2     0.900000E-01   1.00800           0
      6486 MEMB     56       SOPE     C35      CTL2    -0.180000       12.0110           0
      6487 MEMB     56       SOPE     H5X      HAL2     0.900000E-01   1.00800           0
      6488 MEMB     56       SOPE     H5Y      HAL2     0.900000E-01   1.00800           0
      6489 MEMB     56       SOPE     C36      CTL2    -0.180000       12.0110           0
      6490 MEMB     56       SOPE     H6X      HAL2     0.900000E-01   1.00800           0
      6491 MEMB     56       SOPE     H6Y      HAL2     0.900000E-01   1.00800           0
      6492 MEMB     56       SOPE     C37      CTL2    -0.180000       12.0110           0
      6493 MEMB     56       SOPE     H7X      HAL2     0.900000E-01   1.00800           0
      6494 MEMB     56       SOPE     H7Y      HAL2     0.900000E-01   1.00800           0
      6495 MEMB     56       SOPE     C38      CTL2    -0.180000       12.0110           0
      6496 MEMB     56       SOPE     H8X      HAL2     0.900000E-01   1.00800           0
      6497 MEMB     56       SOPE     H8Y      HAL2     0.900000E-01   1.00800           0
      6498 MEMB     56       SOPE     C39      CTL2    -0.180000       12.0110           0
      6499 MEMB     56       SOPE     H9X      HAL2     0.900000E-01   1.00800           0
      6500 MEMB     56       SOPE     H9Y      HAL2     0.900000E-01   1.00800           0
      6501 MEMB     56       SOPE     C310     CTL2    -0.180000       12.0110           0
      6502 MEMB     56       SOPE     H10X     HAL2     0.900000E-01   1.00800           0
      6503 MEMB     56       SOPE     H10Y     HAL2     0.900000E-01   1.00800           0
      6504 MEMB     56       SOPE     C311     CTL2    -0.180000       12.0110           0
      6505 MEMB     56       SOPE     H11X     HAL2     0.900000E-01   1.00800           0
      6506 MEMB     56       SOPE     H11Y     HAL2     0.900000E-01   1.00800           0
      6507 MEMB     56       SOPE     C312     CTL2    -0.180000       12.0110           0
      6508 MEMB     56       SOPE     H12X     HAL2     0.900000E-01   1.00800           0
      6509 MEMB     56       SOPE     H12Y     HAL2     0.900000E-01   1.00800           0
      6510 MEMB     56       SOPE     C313     CTL2    -0.180000       12.0110           0
      6511 MEMB     56       SOPE     H13X     HAL2     0.900000E-01   1.00800           0
      6512 MEMB     56       SOPE     H13Y     HAL2     0.900000E-01   1.00800           0
      6513 MEMB     56       SOPE     C314     CTL2    -0.180000       12.0110           0
      6514 MEMB     56       SOPE     H14X     HAL2     0.900000E-01   1.00800           0
      6515 MEMB     56       SOPE     H14Y     HAL2     0.900000E-01   1.00800           0
      6516 MEMB     56       SOPE     C315     CTL2    -0.180000       12.0110           0
      6517 MEMB     56       SOPE     H15X     HAL2     0.900000E-01   1.00800           0
      6518 MEMB     56       SOPE     H15Y     HAL2     0.900000E-01   1.00800           0
      6519 MEMB     56       SOPE     C316     CTL2    -0.180000       12.0110           0
      6520 MEMB     56       SOPE     H16X     HAL2     0.900000E-01   1.00800           0
      6521 MEMB     56       SOPE     H16Y     HAL2     0.900000E-01   1.00800           0
      6522 MEMB     56       SOPE     C317     CTL2    -0.180000       12.0110           0
      6523 MEMB     56       SOPE     H17X     HAL2     0.900000E-01   1.00800           0
      6524 MEMB     56       SOPE     H17Y     HAL2     0.900000E-01   1.00800           0
      6525 MEMB     56       SOPE     C318     CTL3    -0.270000       12.0110           0
      6526 MEMB     56       SOPE     H18X     HAL3     0.900000E-01   1.00800           0
      6527 MEMB     56       SOPE     H18Y     HAL3     0.900000E-01   1.00800           0
      6528 MEMB     56       SOPE     H18Z     HAL3     0.900000E-01   1.00800           0
      6529 MEMB     57       SAPC     N        NTL     -0.600000       14.0070           0
      6530 MEMB     57       SAPC     C12      CTL2    -0.100000       12.0110           0
      6531 MEMB     57       SAPC     H12A     HL       0.250000       1.00800           0
      6532 MEMB     57       SAPC     H12B     HL       0.250000       1.00800           0
      6533 MEMB     57       SAPC     C13      CTL5    -0.350000       12.0110           0
      6534 MEMB     57       SAPC     H13A     HL       0.250000       1.00800           0
      6535 MEMB     57       SAPC     H13B     HL       0.250000       1.00800           0
      6536 MEMB     57       SAPC     H13C     HL       0.250000       1.00800           0
      6537 MEMB     57       SAPC     C14      CTL5    -0.350000       12.0110           0
      6538 MEMB     57       SAPC     H14A     HL       0.250000       1.00800           0
      6539 MEMB     57       SAPC     H14B     HL       0.250000       1.00800           0
      6540 MEMB     57       SAPC     H14C     HL       0.250000       1.00800           0
      6541 MEMB     57       SAPC     C15      CTL5    -0.350000       12.0110           0
      6542 MEMB     57       SAPC     H15A     HL       0.250000       1.00800           0
      6543 MEMB     57       SAPC     H15B     HL       0.250000       1.00800           0
      6544 MEMB     57       SAPC     H15C     HL       0.250000       1.00800           0
      6545 MEMB     57       SAPC     C11      CTL2    -0.800000E-01   12.0110           0
      6546 MEMB     57       SAPC     H11A     HAL2     0.900000E-01   1.00800           0
      6547 MEMB     57       SAPC     H11B     HAL2     0.900000E-01   1.00800           0
      6548 MEMB     57       SAPC     P        PL        1.50000       30.9740           0
      6549 MEMB     57       SAPC     O13      O2L     -0.780000       15.9994           0
      6550 MEMB     57       SAPC     O14      O2L     -0.780000       15.9994           0
      6551 MEMB     57       SAPC     O12      OSLP    -0.570000       15.9994           0
      6552 MEMB     57       SAPC     O11      OSLP    -0.570000       15.9994           0
      6553 MEMB     57       SAPC     C1       CTL2    -0.800000E-01   12.0110           0
      6554 MEMB     57       SAPC     HA       HAL2     0.900000E-01   1.00800           0
      6555 MEMB     57       SAPC     HB       HAL2     0.900000E-01   1.00800           0
      6556 MEMB     57       SAPC     C2       CTL1     0.170000       12.0110           0
      6557 MEMB     57       SAPC     HS       HAL1     0.900000E-01   1.00800           0
      6558 MEMB     57       SAPC     O21      OSL     -0.490000       15.9994           0
      6559 MEMB     57       SAPC     C21      CL       0.900000       12.0110           0
      6560 MEMB     57       SAPC     O22      OBL     -0.630000       15.9994           0
      6561 MEMB     57       SAPC     C22      CTL2    -0.220000       12.0110           0
      6562 MEMB     57       SAPC     H2R      HAL2     0.900000E-01   1.00800           0
      6563 MEMB     57       SAPC     H2S      HAL2     0.900000E-01   1.00800           0
      6564 MEMB     57       SAPC     C3       CTL2     0.800000E-01   12.0110           0
      6565 MEMB     57       SAPC     HX       HAL2     0.900000E-01   1.00800           0
      6566 MEMB     57       SAPC     HY       HAL2     0.900000E-01   1.00800           0
      6567 MEMB     57       SAPC     O31      OSL     -0.490000       15.9994           0
      6568 MEMB     57       SAPC     C31      CL       0.900000       12.0110           0
      6569 MEMB     57       SAPC     O32      OBL     -0.630000       15.9994           0
      6570 MEMB     57       SAPC     C32      CTL2    -0.220000       12.0110           0
      6571 MEMB     57       SAPC     H2X      HAL2     0.900000E-01   1.00800           0
      6572 MEMB     57       SAPC     H2Y      HAL2     0.900000E-01   1.00800           0
      6573 MEMB     57       SAPC     C23      CTL2    -0.180000       12.0110           0
      6574 MEMB     57       SAPC     H3R      HAL2     0.900000E-01   1.00800           0
      6575 MEMB     57       SAPC     H3S      HAL2     0.900000E-01   1.00800           0
      6576 MEMB     57       SAPC     C24      CTL2    -0.180000       12.0110           0
      6577 MEMB     57       SAPC     H4R      HAL2     0.900000E-01   1.00800           0
      6578 MEMB     57       SAPC     H4S      HAL2     0.900000E-01   1.00800           0
      6579 MEMB     57       SAPC     C25      CEL1    -0.150000       12.0110           0
      6580 MEMB     57       SAPC     H5R      HEL1     0.150000       1.00800           0
      6581 MEMB     57       SAPC     C26      CEL1    -0.150000       12.0110           0
      6582 MEMB     57       SAPC     H6R      HEL1     0.150000       1.00800           0
      6583 MEMB     57       SAPC     C27      CTL2    -0.180000       12.0110           0
      6584 MEMB     57       SAPC     H7R      HAL2     0.900000E-01   1.00800           0
      6585 MEMB     57       SAPC     H7S      HAL2     0.900000E-01   1.00800           0
      6586 MEMB     57       SAPC     C28      CEL1    -0.150000       12.0110           0
      6587 MEMB     57       SAPC     H8R      HEL1     0.150000       1.00800           0
      6588 MEMB     57       SAPC     C29      CEL1    -0.150000       12.0110           0
      6589 MEMB     57       SAPC     H9R      HEL1     0.150000       1.00800           0
      6590 MEMB     57       SAPC     C210     CTL2    -0.180000       12.0110           0
      6591 MEMB     57       SAPC     H10R     HAL2     0.900000E-01   1.00800           0
      6592 MEMB     57       SAPC     H10S     HAL2     0.900000E-01   1.00800           0
      6593 MEMB     57       SAPC     C211     CEL1    -0.150000       12.0110           0
      6594 MEMB     57       SAPC     H11R     HEL1     0.150000       1.00800           0
      6595 MEMB     57       SAPC     C212     CEL1    -0.150000       12.0110           0
      6596 MEMB     57       SAPC     H12R     HEL1     0.150000       1.00800           0
      6597 MEMB     57       SAPC     C213     CTL2    -0.180000       12.0110           0
      6598 MEMB     57       SAPC     H13R     HAL2     0.900000E-01   1.00800           0
      6599 MEMB     57       SAPC     H13S     HAL2     0.900000E-01   1.00800           0
      6600 MEMB     57       SAPC     C214     CEL1    -0.150000       12.0110           0
      6601 MEMB     57       SAPC     H14R     HEL1     0.150000       1.00800           0
      6602 MEMB     57       SAPC     C215     CEL1    -0.150000       12.0110           0
      6603 MEMB     57       SAPC     H15R     HEL1     0.150000       1.00800           0
      6604 MEMB     57       SAPC     C216     CTL2    -0.180000       12.0110           0
      6605 MEMB     57       SAPC     H16R     HAL2     0.900000E-01   1.00800           0
      6606 MEMB     57       SAPC     H16S     HAL2     0.900000E-01   1.00800           0
      6607 MEMB     57       SAPC     C217     CTL2    -0.180000       12.0110           0
      6608 MEMB     57       SAPC     H17R     HAL2     0.900000E-01   1.00800           0
      6609 MEMB     57       SAPC     H17S     HAL2     0.900000E-01   1.00800           0
      6610 MEMB     57       SAPC     C218     CTL2    -0.270000       12.0110           0
      6611 MEMB     57       SAPC     H18R     HAL2     0.900000E-01   1.00800           0
      6612 MEMB     57       SAPC     H18S     HAL2     0.900000E-01   1.00800           0
      6613 MEMB     57       SAPC     C219     CTL2    -0.180000       12.0110           0
      6614 MEMB     57       SAPC     H19R     HAL2     0.900000E-01   1.00800           0
      6615 MEMB     57       SAPC     H19S     HAL2     0.900000E-01   1.00800           0
      6616 MEMB     57       SAPC     C220     CTL3    -0.180000       12.0110           0
      6617 MEMB     57       SAPC     H20R     HAL3     0.900000E-01   1.00800           0
      6618 MEMB     57       SAPC     H20S     HAL3     0.900000E-01   1.00800           0
      6619 MEMB     57       SAPC     H20T     HAL3     0.900000E-01   1.00800           0
      6620 MEMB     57       SAPC     C33      CTL2    -0.180000       12.0110           0
      6621 MEMB     57       SAPC     H3X      HAL2     0.900000E-01   1.00800           0
      6622 MEMB     57       SAPC     H3Y      HAL2     0.900000E-01   1.00800           0
      6623 MEMB     57       SAPC     C34      CTL2    -0.180000       12.0110           0
      6624 MEMB     57       SAPC     H4X      HAL2     0.900000E-01   1.00800           0
      6625 MEMB     57       SAPC     H4Y      HAL2     0.900000E-01   1.00800           0
      6626 MEMB     57       SAPC     C35      CTL2    -0.180000       12.0110           0
      6627 MEMB     57       SAPC     H5X      HAL2     0.900000E-01   1.00800           0
      6628 MEMB     57       SAPC     H5Y      HAL2     0.900000E-01   1.00800           0
      6629 MEMB     57       SAPC     C36      CTL2    -0.180000       12.0110           0
      6630 MEMB     57       SAPC     H6X      HAL2     0.900000E-01   1.00800           0
      6631 MEMB     57       SAPC     H6Y      HAL2     0.900000E-01   1.00800           0
      6632 MEMB     57       SAPC     C37      CTL2    -0.180000       12.0110           0
      6633 MEMB     57       SAPC     H7X      HAL2     0.900000E-01   1.00800           0
      6634 MEMB     57       SAPC     H7Y      HAL2     0.900000E-01   1.00800           0
      6635 MEMB     57       SAPC     C38      CTL2    -0.180000       12.0110           0
      6636 MEMB     57       SAPC     H8X      HAL2     0.900000E-01   1.00800           0
      6637 MEMB     57       SAPC     H8Y      HAL2     0.900000E-01   1.00800           0
      6638 MEMB     57       SAPC     C39      CTL2    -0.180000       12.0110           0
      6639 MEMB     57       SAPC     H9X      HAL2     0.900000E-01   1.00800           0
      6640 MEMB     57       SAPC     H9Y      HAL2     0.900000E-01   1.00800           0
      6641 MEMB     57       SAPC     C310     CTL2    -0.180000       12.0110           0
      6642 MEMB     57       SAPC     H10X     HAL2     0.900000E-01   1.00800           0
      6643 MEMB     57       SAPC     H10Y     HAL2     0.900000E-01   1.00800           0
      6644 MEMB     57       SAPC     C311     CTL2    -0.180000       12.0110           0
      6645 MEMB     57       SAPC     H11X     HAL2     0.900000E-01   1.00800           0
      6646 MEMB     57       SAPC     H11Y     HAL2     0.900000E-01   1.00800           0
      6647 MEMB     57       SAPC     C312     CTL2    -0.180000       12.0110           0
      6648 MEMB     57       SAPC     H12X     HAL2     0.900000E-01   1.00800           0
      6649 MEMB     57       SAPC     H12Y     HAL2     0.900000E-01   1.00800           0
      6650 MEMB     57       SAPC     C313     CTL2    -0.180000       12.0110           0
      6651 MEMB     57       SAPC     H13X     HAL2     0.900000E-01   1.00800           0
      6652 MEMB     57       SAPC     H13Y     HAL2     0.900000E-01   1.00800           0
      6653 MEMB     57       SAPC     C314     CTL2    -0.180000       12.0110           0
      6654 MEMB     57       SAPC     H14X     HAL2     0.900000E-01   1.00800           0
      6655 MEMB     57       SAPC     H14Y     HAL2     0.900000E-01   1.00800           0
      6656 MEMB     57       SAPC     C315     CTL2    -0.180000       12.0110           0
      6657 MEMB     57       SAPC     H15X     HAL2     0.900000E-01   1.00800           0
      6658 MEMB     57       SAPC     H15Y     HAL2     0.900000E-01   1.00800           0
      6659 MEMB     57       SAPC     C316     CTL2    -0.180000       12.0110           0
      6660 MEMB     57       SAPC     H16X     HAL2     0.900000E-01   1.00800           0
      6661 MEMB     57       SAPC     H16Y     HAL2     0.900000E-01   1.00800           0
      6662 MEMB     57       SAPC     C317     CTL2    -0.180000       12.0110           0
      6663 MEMB     57       SAPC     H17X     HAL2     0.900000E-01   1.00800           0
      6664 MEMB     57       SAPC     H17Y     HAL2     0.900000E-01   1.00800           0
      6665 MEMB     57       SAPC     C318     CTL3    -0.270000       12.0110           0
      6666 MEMB     57       SAPC     H18X     HAL3     0.900000E-01   1.00800           0
      6667 MEMB     57       SAPC     H18Y     HAL3     0.900000E-01   1.00800           0
      6668 MEMB     57       SAPC     H18Z     HAL3     0.900000E-01   1.00800           0
      6669 MEMB     58       OSM      N        NTL     -0.600000       14.0070           0
      6670 MEMB     58       OSM      C15      CTL5    -0.350000       12.0110           0
      6671 MEMB     58       OSM      H15A     HL       0.250000       1.00800           0
      6672 MEMB     58       OSM      H15B     HL       0.250000       1.00800           0
      6673 MEMB     58       OSM      H15C     HL       0.250000       1.00800           0
      6674 MEMB     58       OSM      C14      CTL5    -0.350000       12.0110           0
      6675 MEMB     58       OSM      H14A     HL       0.250000       1.00800           0
      6676 MEMB     58       OSM      H14B     HL       0.250000       1.00800           0
      6677 MEMB     58       OSM      H14C     HL       0.250000       1.00800           0
      6678 MEMB     58       OSM      C13      CTL5    -0.350000       12.0110           0
      6679 MEMB     58       OSM      H13A     HL       0.250000       1.00800           0
      6680 MEMB     58       OSM      H13B     HL       0.250000       1.00800           0
      6681 MEMB     58       OSM      H13C     HL       0.250000       1.00800           0
      6682 MEMB     58       OSM      C12      CTL2    -0.100000       12.0110           0
      6683 MEMB     58       OSM      H12A     HL       0.250000       1.00800           0
      6684 MEMB     58       OSM      H12B     HL       0.250000       1.00800           0
      6685 MEMB     58       OSM      C11      CTL2    -0.800000E-01   12.0110           0
      6686 MEMB     58       OSM      H11A     HAL2     0.900000E-01   1.00800           0
      6687 MEMB     58       OSM      H11B     HAL2     0.900000E-01   1.00800           0
      6688 MEMB     58       OSM      P        PL        1.50000       30.9740           0
      6689 MEMB     58       OSM      O13      O2L     -0.780000       15.9994           0
      6690 MEMB     58       OSM      O14      O2L     -0.780000       15.9994           0
      6691 MEMB     58       OSM      O11      OSLP    -0.570000       15.9994           0
      6692 MEMB     58       OSM      O12      OSLP    -0.570000       15.9994           0
      6693 MEMB     58       OSM      C1S      CTL2    -0.800000E-01   12.0110           0
      6694 MEMB     58       OSM      H1S      HAL2     0.900000E-01   1.00800           0
      6695 MEMB     58       OSM      H1T      HAL2     0.900000E-01   1.00800           0
      6696 MEMB     58       OSM      NF       NHL     -0.700000       14.0070           0
      6697 MEMB     58       OSM      HNF      H        0.350000       1.00800           0
      6698 MEMB     58       OSM      C2S      CTL1     0.300000       12.0110           0
      6699 MEMB     58       OSM      H2S      HAL1     0.500000E-01   1.00800           0
      6700 MEMB     58       OSM      C3S      CTO1     0.500000       12.0110           0
      6701 MEMB     58       OSM      H3S      HAL1    -0.110000       1.00800           0
      6702 MEMB     58       OSM      O3       OHL     -0.690000       15.9994           0
      6703 MEMB     58       OSM      HO3      HOL      0.300000       1.00800           0
      6704 MEMB     58       OSM      C4S      CEL3    -0.150000       12.0110           0
      6705 MEMB     58       OSM      H4S      HEL1     0.150000       1.00800           0
      6706 MEMB     58       OSM      C5S      CEL3    -0.150000       12.0110           0
      6707 MEMB     58       OSM      H5S      HEL1     0.150000       1.00800           0
      6708 MEMB     58       OSM      C6S      CTL2    -0.180000       12.0110           0
      6709 MEMB     58       OSM      H6S      HAL2     0.900000E-01   1.00800           0
      6710 MEMB     58       OSM      H6T      HAL2     0.900000E-01   1.00800           0
      6711 MEMB     58       OSM      C7S      CTL2    -0.180000       12.0110           0
      6712 MEMB     58       OSM      H7S      HAL2     0.900000E-01   1.00800           0
      6713 MEMB     58       OSM      H7T      HAL2     0.900000E-01   1.00800           0
      6714 MEMB     58       OSM      C8S      CTL2    -0.180000       12.0110           0
      6715 MEMB     58       OSM      H8S      HAL2     0.900000E-01   1.00800           0
      6716 MEMB     58       OSM      H8T      HAL2     0.900000E-01   1.00800           0
      6717 MEMB     58       OSM      C9S      CTL2    -0.180000       12.0110           0
      6718 MEMB     58       OSM      H9S      HAL2     0.900000E-01   1.00800           0
      6719 MEMB     58       OSM      H9T      HAL2     0.900000E-01   1.00800           0
      6720 MEMB     58       OSM      C10S     CTL2    -0.180000       12.0110           0
      6721 MEMB     58       OSM      H10S     HAL2     0.900000E-01   1.00800           0
      6722 MEMB     58       OSM      H10T     HAL2     0.900000E-01   1.00800           0
      6723 MEMB     58       OSM      C11S     CTL2    -0.180000       12.0110           0
      6724 MEMB     58       OSM      H11S     HAL2     0.900000E-01   1.00800           0
      6725 MEMB     58       OSM      H11T     HAL2     0.900000E-01   1.00800           0
      6726 MEMB     58       OSM      C12S     CTL2    -0.180000       12.0110           0
      6727 MEMB     58       OSM      H12S     HAL2     0.900000E-01   1.00800           0
      6728 MEMB     58       OSM      H12T     HAL2     0.900000E-01   1.00800           0
      6729 MEMB     58       OSM      C13S     CTL2    -0.180000       12.0110           0
      6730 MEMB     58       OSM      H13S     HAL2     0.900000E-01   1.00800           0
      6731 MEMB     58       OSM      H13T     HAL2     0.900000E-01   1.00800           0
      6732 MEMB     58       OSM      C14S     CTL2    -0.180000       12.0110           0
      6733 MEMB     58       OSM      H14S     HAL2     0.900000E-01   1.00800           0
      6734 MEMB     58       OSM      H14T     HAL2     0.900000E-01   1.00800           0
      6735 MEMB     58       OSM      C15S     CTL2    -0.180000       12.0110           0
      6736 MEMB     58       OSM      H15S     HAL2     0.900000E-01   1.00800           0
      6737 MEMB     58       OSM      H15T     HAL2     0.900000E-01   1.00800           0
      6738 MEMB     58       OSM      C16S     CTL2    -0.180000       12.0110           0
      6739 MEMB     58       OSM      H16S     HAL2     0.900000E-01   1.00800           0
      6740 MEMB     58       OSM      H16T     HAL2     0.900000E-01   1.00800           0
      6741 MEMB     58       OSM      C17S     CTL2    -0.180000       12.0110           0
      6742 MEMB     58       OSM      H17S     HAL2     0.900000E-01   1.00800           0
      6743 MEMB     58       OSM      H17T     HAL2     0.900000E-01   1.00800           0
      6744 MEMB     58       OSM      C18S     CTL3    -0.270000       12.0110           0
      6745 MEMB     58       OSM      H18S     HAL3     0.900000E-01   1.00800           0
      6746 MEMB     58       OSM      H18T     HAL3     0.900000E-01   1.00800           0
      6747 MEMB     58       OSM      H18U     HAL3     0.900000E-01   1.00800           0
      6748 MEMB     58       OSM      C1F      C        0.550000       12.0110           0
      6749 MEMB     58       OSM      OF       O       -0.600000       15.9994           0
      6750 MEMB     58       OSM      C2F      CTL2    -0.700000E-01   12.0110           0
      6751 MEMB     58       OSM      H2F      HAL2     0.600000E-01   1.00800           0
      6752 MEMB     58       OSM      H2G      HAL2     0.600000E-01   1.00800           0
      6753 MEMB     58       OSM      C3F      CTL2    -0.180000       12.0110           0
      6754 MEMB     58       OSM      H3F      HAL2     0.900000E-01   1.00800           0
      6755 MEMB     58       OSM      H3G      HAL2     0.900000E-01   1.00800           0
      6756 MEMB     58       OSM      C4F      CTL2    -0.180000       12.0110           0
      6757 MEMB     58       OSM      H4F      HAL2     0.900000E-01   1.00800           0
      6758 MEMB     58       OSM      H4G      HAL2     0.900000E-01   1.00800           0
      6759 MEMB     58       OSM      C5F      CTL2    -0.180000       12.0110           0
      6760 MEMB     58       OSM      H5F      HAL2     0.900000E-01   1.00800           0
      6761 MEMB     58       OSM      H5G      HAL2     0.900000E-01   1.00800           0
      6762 MEMB     58       OSM      C6F      CTL2    -0.180000       12.0110           0
      6763 MEMB     58       OSM      H6F      HAL2     0.900000E-01   1.00800           0
      6764 MEMB     58       OSM      H6G      HAL2     0.900000E-01   1.00800           0
      6765 MEMB     58       OSM      C7F      CTL2    -0.180000       12.0110           0
      6766 MEMB     58       OSM      H7F      HAL2     0.900000E-01   1.00800           0
      6767 MEMB     58       OSM      H7G      HAL2     0.900000E-01   1.00800           0
      6768 MEMB     58       OSM      C8F      CTL2    -0.180000       12.0110           0
      6769 MEMB     58       OSM      H8F      HAL2     0.900000E-01   1.00800           0
      6770 MEMB     58       OSM      H8G      HAL2     0.900000E-01   1.00800           0
      6771 MEMB     58       OSM      C9F      CEL1    -0.150000       12.0110           0
      6772 MEMB     58       OSM      H9F      HEL1     0.150000       1.00800           0
      6773 MEMB     58       OSM      C10F     CEL1    -0.150000       12.0110           0
      6774 MEMB     58       OSM      H10F     HEL1     0.150000       1.00800           0
      6775 MEMB     58       OSM      C11F     CTL2    -0.180000       12.0110           0
      6776 MEMB     58       OSM      H11F     HAL2     0.900000E-01   1.00800           0
      6777 MEMB     58       OSM      H11G     HAL2     0.900000E-01   1.00800           0
      6778 MEMB     58       OSM      C12F     CTL2    -0.180000       12.0110           0
      6779 MEMB     58       OSM      H12F     HAL2     0.900000E-01   1.00800           0
      6780 MEMB     58       OSM      H12G     HAL2     0.900000E-01   1.00800           0
      6781 MEMB     58       OSM      C13F     CTL2    -0.180000       12.0110           0
      6782 MEMB     58       OSM      H13F     HAL2     0.900000E-01   1.00800           0
      6783 MEMB     58       OSM      H13G     HAL2     0.900000E-01   1.00800           0
      6784 MEMB     58       OSM      C14F     CTL2    -0.180000       12.0110           0
      6785 MEMB     58       OSM      H14F     HAL2     0.900000E-01   1.00800           0
      6786 MEMB     58       OSM      H14G     HAL2     0.900000E-01   1.00800           0
      6787 MEMB     58       OSM      C15F     CTL2    -0.180000       12.0110           0
      6788 MEMB     58       OSM      H15F     HAL2     0.900000E-01   1.00800           0
      6789 MEMB     58       OSM      H15G     HAL2     0.900000E-01   1.00800           0
      6790 MEMB     58       OSM      C16F     CTL2    -0.180000       12.0110           0
      6791 MEMB     58       OSM      H16F     HAL2     0.900000E-01   1.00800           0
      6792 MEMB     58       OSM      H16G     HAL2     0.900000E-01   1.00800           0
      6793 MEMB     58       OSM      C17F     CTL2    -0.180000       12.0110           0
      6794 MEMB     58       OSM      H17F     HAL2     0.900000E-01   1.00800           0
      6795 MEMB     58       OSM      H17G     HAL2     0.900000E-01   1.00800           0
      6796 MEMB     58       OSM      C18F     CTL3    -0.270000       12.0110           0
      6797 MEMB     58       OSM      H18F     HAL3     0.900000E-01   1.00800           0
      6798 MEMB     58       OSM      H18G     HAL3     0.900000E-01   1.00800           0
      6799 MEMB     58       OSM      H18H     HAL3     0.900000E-01   1.00800           0
      6800 MEMB     59       CHL1     C3       CRL1     0.140000       12.0110           0
      6801 MEMB     59       CHL1     H3       HGA1     0.900000E-01   1.00800           0
      6802 MEMB     59       CHL1     O3       OHL     -0.660000       15.9994           0
      6803 MEMB     59       CHL1     H3'      HOL      0.430000       1.00800           0
      6804 MEMB     59       CHL1     C4       CRL2    -0.180000       12.0110           0
      6805 MEMB     59       CHL1     H4A      HGA2     0.900000E-01   1.00800           0
      6806 MEMB     59       CHL1     H4B      HGA2     0.900000E-01   1.00800           0
      6807 MEMB     59       CHL1     C5       CEL1      0.00000       12.0110           0
      6808 MEMB     59       CHL1     C6       CEL1    -0.150000       12.0110           0
      6809 MEMB     59       CHL1     H6       HEL1     0.150000       1.00800           0
      6810 MEMB     59       CHL1     C7       CRL2    -0.180000       12.0110           0
      6811 MEMB     59       CHL1     H7A      HGA2     0.900000E-01   1.00800           0
      6812 MEMB     59       CHL1     H7B      HGA2     0.900000E-01   1.00800           0
      6813 MEMB     59       CHL1     C8       CRL1    -0.900000E-01   12.0110           0
      6814 MEMB     59       CHL1     H8       HGA1     0.900000E-01   1.00800           0
      6815 MEMB     59       CHL1     C14      CRL1    -0.900000E-01   12.0110           0
      6816 MEMB     59       CHL1     H14      HGA1     0.900000E-01   1.00800           0
      6817 MEMB     59       CHL1     C15      CRL2    -0.180000       12.0110           0
      6818 MEMB     59       CHL1     H15A     HGA2     0.900000E-01   1.00800           0
      6819 MEMB     59       CHL1     H15B     HGA2     0.900000E-01   1.00800           0
      6820 MEMB     59       CHL1     C16      CRL2    -0.180000       12.0110           0
      6821 MEMB     59       CHL1     H16A     HGA2     0.900000E-01   1.00800           0
      6822 MEMB     59       CHL1     H16B     HGA2     0.900000E-01   1.00800           0
      6823 MEMB     59       CHL1     C17      CRL1    -0.900000E-01   12.0110           0
      6824 MEMB     59       CHL1     H17      HGA1     0.900000E-01   1.00800           0
      6825 MEMB     59       CHL1     C13      CRL1      0.00000       12.0110           0
      6826 MEMB     59       CHL1     C18      CTL3    -0.270000       12.0110           0
      6827 MEMB     59       CHL1     H18A     HAL3     0.900000E-01   1.00800           0
      6828 MEMB     59       CHL1     H18B     HAL3     0.900000E-01   1.00800           0
      6829 MEMB     59       CHL1     H18C     HAL3     0.900000E-01   1.00800           0
      6830 MEMB     59       CHL1     C12      CRL2    -0.180000       12.0110           0
      6831 MEMB     59       CHL1     H12A     HGA2     0.900000E-01   1.00800           0
      6832 MEMB     59       CHL1     H12B     HGA2     0.900000E-01   1.00800           0
      6833 MEMB     59       CHL1     C11      CRL2    -0.180000       12.0110           0
      6834 MEMB     59       CHL1     H11A     HGA2     0.900000E-01   1.00800           0
      6835 MEMB     59       CHL1     H11B     HGA2     0.900000E-01   1.00800           0
      6836 MEMB     59       CHL1     C9       CRL1    -0.900000E-01   12.0110           0
      6837 MEMB     59       CHL1     H9       HGA1     0.900000E-01   1.00800           0
      6838 MEMB     59       CHL1     C10      CRL1      0.00000       12.0110           0
      6839 MEMB     59       CHL1     C19      CTL3    -0.270000       12.0110           0
      6840 MEMB     59       CHL1     H19A     HAL3     0.900000E-01   1.00800           0
      6841 MEMB     59       CHL1     H19B     HAL3     0.900000E-01   1.00800           0
      6842 MEMB     59       CHL1     H19C     HAL3     0.900000E-01   1.00800           0
      6843 MEMB     59       CHL1     C1       CRL2    -0.180000       12.0110           0
      6844 MEMB     59       CHL1     H1A      HGA2     0.900000E-01   1.00800           0
      6845 MEMB     59       CHL1     H1B      HGA2     0.900000E-01   1.00800           0
      6846 MEMB     59       CHL1     C2       CRL2    -0.180000       12.0110           0
      6847 MEMB     59       CHL1     H2A      HGA2     0.900000E-01   1.00800           0
      6848 MEMB     59       CHL1     H2B      HGA2     0.900000E-01   1.00800           0
      6849 MEMB     59       CHL1     C20      CTL1    -0.900000E-01   12.0110           0
      6850 MEMB     59       CHL1     H20      HAL1     0.900000E-01   1.00800           0
      6851 MEMB     59       CHL1     C21      CTL3    -0.270000       12.0110           0
      6852 MEMB     59       CHL1     H21A     HAL3     0.900000E-01   1.00800           0
      6853 MEMB     59       CHL1     H21B     HAL3     0.900000E-01   1.00800           0
      6854 MEMB     59       CHL1     H21C     HAL3     0.900000E-01   1.00800           0
      6855 MEMB     59       CHL1     C22      CTL2    -0.180000       12.0110           0
      6856 MEMB     59       CHL1     H22A     HAL2     0.900000E-01   1.00800           0
      6857 MEMB     59       CHL1     H22B     HAL2     0.900000E-01   1.00800           0
      6858 MEMB     59       CHL1     C23      CTL2    -0.180000       12.0110           0
      6859 MEMB     59       CHL1     H23A     HAL2     0.900000E-01   1.00800           0
      6860 MEMB     59       CHL1     H23B     HAL2     0.900000E-01   1.00800           0
      6861 MEMB     59       CHL1     C24      CTL2    -0.180000       12.0110           0
      6862 MEMB     59       CHL1     H24A     HAL2     0.900000E-01   1.00800           0
      6863 MEMB     59       CHL1     H24B     HAL2     0.900000E-01   1.00800           0
      6864 MEMB     59       CHL1     C25      CTL1    -0.900000E-01   12.0110           0
      6865 MEMB     59       CHL1     H25      HAL1     0.900000E-01   1.00800           0
      6866 MEMB     59       CHL1     C26      CTL3    -0.270000       12.0110           0
      6867 MEMB     59       CHL1     H26A     HAL3     0.900000E-01   1.00800           0
      6868 MEMB     59       CHL1     H26B     HAL3     0.900000E-01   1.00800           0
      6869 MEMB     59       CHL1     H26C     HAL3     0.900000E-01   1.00800           0
      6870 MEMB     59       CHL1     C27      CTL3    -0.270000       12.0110           0
      6871 MEMB     59       CHL1     H27A     HAL3     0.900000E-01   1.00800           0
      6872 MEMB     59       CHL1     H27B     HAL3     0.900000E-01   1.00800           0
      6873 MEMB     59       CHL1     H27C     HAL3     0.900000E-01   1.00800           0
      6874 MEMB     60       SLPC     N        NTL     -0.600000       14.0070           0
      6875 MEMB     60       SLPC     C13      CTL5    -0.350000       12.0110           0
      6876 MEMB     60       SLPC     H13A     HL       0.250000       1.00800           0
      6877 MEMB     60       SLPC     H13B     HL       0.250000       1.00800           0
      6878 MEMB     60       SLPC     H13C     HL       0.250000       1.00800           0
      6879 MEMB     60       SLPC     C14      CTL5    -0.350000       12.0110           0
      6880 MEMB     60       SLPC     H14A     HL       0.250000       1.00800           0
      6881 MEMB     60       SLPC     H14B     HL       0.250000       1.00800           0
      6882 MEMB     60       SLPC     H14C     HL       0.250000       1.00800           0
      6883 MEMB     60       SLPC     C15      CTL5    -0.350000       12.0110           0
      6884 MEMB     60       SLPC     H15A     HL       0.250000       1.00800           0
      6885 MEMB     60       SLPC     H15B     HL       0.250000       1.00800           0
      6886 MEMB     60       SLPC     H15C     HL       0.250000       1.00800           0
      6887 MEMB     60       SLPC     C12      CTL2    -0.100000       12.0110           0
      6888 MEMB     60       SLPC     H12A     HL       0.250000       1.00800           0
      6889 MEMB     60       SLPC     H12B     HL       0.250000       1.00800           0
      6890 MEMB     60       SLPC     C11      CTL2    -0.800000E-01   12.0110           0
      6891 MEMB     60       SLPC     H11A     HAL2     0.900000E-01   1.00800           0
      6892 MEMB     60       SLPC     H11B     HAL2     0.900000E-01   1.00800           0
      6893 MEMB     60       SLPC     P        PL        1.50000       30.9740           0
      6894 MEMB     60       SLPC     O13      O2L     -0.780000       15.9994           0
      6895 MEMB     60       SLPC     O14      O2L     -0.780000       15.9994           0
      6896 MEMB     60       SLPC     O12      OSLP    -0.570000       15.9994           0
      6897 MEMB     60       SLPC     O11      OSLP    -0.570000       15.9994           0
      6898 MEMB     60       SLPC     C1       CTL2    -0.800000E-01   12.0110           0
      6899 MEMB     60       SLPC     HA       HAL2     0.900000E-01   1.00800           0
      6900 MEMB     60       SLPC     HB       HAL2     0.900000E-01   1.00800           0
      6901 MEMB     60       SLPC     C2       CTL1     0.170000       12.0110           0
      6902 MEMB     60       SLPC     HS       HAL1     0.900000E-01   1.00800           0
      6903 MEMB     60       SLPC     O21      OSL     -0.490000       15.9994           0
      6904 MEMB     60       SLPC     C21      CL       0.900000       12.0110           0
      6905 MEMB     60       SLPC     O22      OBL     -0.630000       15.9994           0
      6906 MEMB     60       SLPC     C22      CTL2    -0.220000       12.0110           0
      6907 MEMB     60       SLPC     H2R      HAL2     0.900000E-01   1.00800           0
      6908 MEMB     60       SLPC     H2S      HAL2     0.900000E-01   1.00800           0
      6909 MEMB     60       SLPC     C3       CTL2     0.800000E-01   12.0110           0
      6910 MEMB     60       SLPC     HX       HAL2     0.900000E-01   1.00800           0
      6911 MEMB     60       SLPC     HY       HAL2     0.900000E-01   1.00800           0
      6912 MEMB     60       SLPC     O31      OSL     -0.490000       15.9994           0
      6913 MEMB     60       SLPC     C31      CL       0.900000       12.0110           0
      6914 MEMB     60       SLPC     O32      OBL     -0.630000       15.9994           0
      6915 MEMB     60       SLPC     C32      CTL2    -0.220000       12.0110           0
      6916 MEMB     60       SLPC     H2X      HAL2     0.900000E-01   1.00800           0
      6917 MEMB     60       SLPC     H2Y      HAL2     0.900000E-01   1.00800           0
      6918 MEMB     60       SLPC     C23      CTL2    -0.180000       12.0110           0
      6919 MEMB     60       SLPC     H3R      HAL2     0.900000E-01   1.00800           0
      6920 MEMB     60       SLPC     H3S      HAL2     0.900000E-01   1.00800           0
      6921 MEMB     60       SLPC     C24      CTL2    -0.180000       12.0110           0
      6922 MEMB     60       SLPC     H4R      HAL2     0.900000E-01   1.00800           0
      6923 MEMB     60       SLPC     H4S      HAL2     0.900000E-01   1.00800           0
      6924 MEMB     60       SLPC     C25      CTL2    -0.180000       12.0110           0
      6925 MEMB     60       SLPC     H5R      HAL2     0.900000E-01   1.00800           0
      6926 MEMB     60       SLPC     H5S      HAL2     0.900000E-01   1.00800           0
      6927 MEMB     60       SLPC     C26      CTL2    -0.180000       12.0110           0
      6928 MEMB     60       SLPC     H6R      HAL2     0.900000E-01   1.00800           0
      6929 MEMB     60       SLPC     H6S      HAL2     0.900000E-01   1.00800           0
      6930 MEMB     60       SLPC     C27      CTL2    -0.180000       12.0110           0
      6931 MEMB     60       SLPC     H7R      HAL2     0.900000E-01   1.00800           0
      6932 MEMB     60       SLPC     H7S      HAL2     0.900000E-01   1.00800           0
      6933 MEMB     60       SLPC     C28      CTL2    -0.180000       12.0110           0
      6934 MEMB     60       SLPC     H8R      HAL2     0.900000E-01   1.00800           0
      6935 MEMB     60       SLPC     H8S      HAL2     0.900000E-01   1.00800           0
      6936 MEMB     60       SLPC     C29      CEL1    -0.150000       12.0110           0
      6937 MEMB     60       SLPC     H9R      HEL1     0.150000       1.00800           0
      6938 MEMB     60       SLPC     C210     CEL1    -0.150000       12.0110           0
      6939 MEMB     60       SLPC     H10R     HEL1     0.150000       1.00800           0
      6940 MEMB     60       SLPC     C211     CTL2    -0.180000       12.0110           0
      6941 MEMB     60       SLPC     H11R     HAL2     0.900000E-01   1.00800           0
      6942 MEMB     60       SLPC     H11S     HAL2     0.900000E-01   1.00800           0
      6943 MEMB     60       SLPC     C212     CEL1    -0.150000       12.0110           0
      6944 MEMB     60       SLPC     H12R     HEL1     0.150000       1.00800           0
      6945 MEMB     60       SLPC     C213     CEL1    -0.150000       12.0110           0
      6946 MEMB     60       SLPC     H13R     HEL1     0.150000       1.00800           0
      6947 MEMB     60       SLPC     C214     CTL2    -0.180000       12.0110           0
      6948 MEMB     60       SLPC     H14R     HAL2     0.900000E-01   1.00800           0
      6949 MEMB     60       SLPC     H14S     HAL2     0.900000E-01   1.00800           0
      6950 MEMB     60       SLPC     C215     CTL2    -0.180000       12.0110           0
      6951 MEMB     60       SLPC     H15R     HAL2     0.900000E-01   1.00800           0
      6952 MEMB     60       SLPC     H15S     HAL2     0.900000E-01   1.00800           0
      6953 MEMB     60       SLPC     C216     CTL2    -0.180000       12.0110           0
      6954 MEMB     60       SLPC     H16R     HAL2     0.900000E-01   1.00800           0
      6955 MEMB     60       SLPC     H16S     HAL2     0.900000E-01   1.00800           0
      6956 MEMB     60       SLPC     C217     CTL2    -0.180000       12.0110           0
      6957 MEMB     60       SLPC     H17R     HAL2     0.900000E-01   1.00800           0
      6958 MEMB     60       SLPC     H17S     HAL2     0.900000E-01   1.00800           0
      6959 MEMB     60       SLPC     C218     CTL3    -0.270000       12.0110           0
      6960 MEMB     60       SLPC     H18R     HAL3     0.900000E-01   1.00800           0
      6961 MEMB     60       SLPC     H18S     HAL3     0.900000E-01   1.00800           0
      6962 MEMB     60       SLPC     H18T     HAL3     0.900000E-01   1.00800           0
      6963 MEMB     60       SLPC     C33      CTL2    -0.180000       12.0110           0
      6964 MEMB     60       SLPC     H3X      HAL2     0.900000E-01   1.00800           0
      6965 MEMB     60       SLPC     H3Y      HAL2     0.900000E-01   1.00800           0
      6966 MEMB     60       SLPC     C34      CTL2    -0.180000       12.0110           0
      6967 MEMB     60       SLPC     H4X      HAL2     0.900000E-01   1.00800           0
      6968 MEMB     60       SLPC     H4Y      HAL2     0.900000E-01   1.00800           0
      6969 MEMB     60       SLPC     C35      CTL2    -0.180000       12.0110           0
      6970 MEMB     60       SLPC     H5X      HAL2     0.900000E-01   1.00800           0
      6971 MEMB     60       SLPC     H5Y      HAL2     0.900000E-01   1.00800           0
      6972 MEMB     60       SLPC     C36      CTL2    -0.180000       12.0110           0
      6973 MEMB     60       SLPC     H6X      HAL2     0.900000E-01   1.00800           0
      6974 MEMB     60       SLPC     H6Y      HAL2     0.900000E-01   1.00800           0
      6975 MEMB     60       SLPC     C37      CTL2    -0.180000       12.0110           0
      6976 MEMB     60       SLPC     H7X      HAL2     0.900000E-01   1.00800           0
      6977 MEMB     60       SLPC     H7Y      HAL2     0.900000E-01   1.00800           0
      6978 MEMB     60       SLPC     C38      CTL2    -0.180000       12.0110           0
      6979 MEMB     60       SLPC     H8X      HAL2     0.900000E-01   1.00800           0
      6980 MEMB     60       SLPC     H8Y      HAL2     0.900000E-01   1.00800           0
      6981 MEMB     60       SLPC     C39      CTL2    -0.180000       12.0110           0
      6982 MEMB     60       SLPC     H9X      HAL2     0.900000E-01   1.00800           0
      6983 MEMB     60       SLPC     H9Y      HAL2     0.900000E-01   1.00800           0
      6984 MEMB     60       SLPC     C310     CTL2    -0.180000       12.0110           0
      6985 MEMB     60       SLPC     H10X     HAL2     0.900000E-01   1.00800           0
      6986 MEMB     60       SLPC     H10Y     HAL2     0.900000E-01   1.00800           0
      6987 MEMB     60       SLPC     C311     CTL2    -0.180000       12.0110           0
      6988 MEMB     60       SLPC     H11X     HAL2     0.900000E-01   1.00800           0
      6989 MEMB     60       SLPC     H11Y     HAL2     0.900000E-01   1.00800           0
      6990 MEMB     60       SLPC     C312     CTL2    -0.180000       12.0110           0
      6991 MEMB     60       SLPC     H12X     HAL2     0.900000E-01   1.00800           0
      6992 MEMB     60       SLPC     H12Y     HAL2     0.900000E-01   1.00800           0
      6993 MEMB     60       SLPC     C313     CTL2    -0.180000       12.0110           0
      6994 MEMB     60       SLPC     H13X     HAL2     0.900000E-01   1.00800           0
      6995 MEMB     60       SLPC     H13Y     HAL2     0.900000E-01   1.00800           0
      6996 MEMB     60       SLPC     C314     CTL2    -0.180000       12.0110           0
      6997 MEMB     60       SLPC     H14X     HAL2     0.900000E-01   1.00800           0
      6998 MEMB     60       SLPC     H14Y     HAL2     0.900000E-01   1.00800           0
      6999 MEMB     60       SLPC     C315     CTL2    -0.180000       12.0110           0
      7000 MEMB     60       SLPC     H15X     HAL2     0.900000E-01   1.00800           0
      7001 MEMB     60       SLPC     H15Y     HAL2     0.900000E-01   1.00800           0
      7002 MEMB     60       SLPC     C316     CTL2    -0.180000       12.0110           0
      7003 MEMB     60       SLPC     H16X     HAL2     0.900000E-01   1.00800           0
      7004 MEMB     60       SLPC     H16Y     HAL2     0.900000E-01   1.00800           0
      7005 MEMB     60       SLPC     C317     CTL2    -0.180000       12.0110           0
      7006 MEMB     60       SLPC     H17X     HAL2     0.900000E-01   1.00800           0
      7007 MEMB     60       SLPC     H17Y     HAL2     0.900000E-01   1.00800           0
      7008 MEMB     60       SLPC     C318     CTL3    -0.270000       12.0110           0
      7009 MEMB     60       SLPC     H18X     HAL3     0.900000E-01   1.00800           0
      7010 MEMB     60       SLPC     H18Y     HAL3     0.900000E-01   1.00800           0
      7011 MEMB     60       SLPC     H18Z     HAL3     0.900000E-01   1.00800           0
      7012 MEMB     61       CHL1     C3       CRL1     0.140000       12.0110           0
      7013 MEMB     61       CHL1     H3       HGA1     0.900000E-01   1.00800           0
      7014 MEMB     61       CHL1     O3       OHL     -0.660000       15.9994           0
      7015 MEMB     61       CHL1     H3'      HOL      0.430000       1.00800           0
      7016 MEMB     61       CHL1     C4       CRL2    -0.180000       12.0110           0
      7017 MEMB     61       CHL1     H4A      HGA2     0.900000E-01   1.00800           0
      7018 MEMB     61       CHL1     H4B      HGA2     0.900000E-01   1.00800           0
      7019 MEMB     61       CHL1     C5       CEL1      0.00000       12.0110           0
      7020 MEMB     61       CHL1     C6       CEL1    -0.150000       12.0110           0
      7021 MEMB     61       CHL1     H6       HEL1     0.150000       1.00800           0
      7022 MEMB     61       CHL1     C7       CRL2    -0.180000       12.0110           0
      7023 MEMB     61       CHL1     H7A      HGA2     0.900000E-01   1.00800           0
      7024 MEMB     61       CHL1     H7B      HGA2     0.900000E-01   1.00800           0
      7025 MEMB     61       CHL1     C8       CRL1    -0.900000E-01   12.0110           0
      7026 MEMB     61       CHL1     H8       HGA1     0.900000E-01   1.00800           0
      7027 MEMB     61       CHL1     C14      CRL1    -0.900000E-01   12.0110           0
      7028 MEMB     61       CHL1     H14      HGA1     0.900000E-01   1.00800           0
      7029 MEMB     61       CHL1     C15      CRL2    -0.180000       12.0110           0
      7030 MEMB     61       CHL1     H15A     HGA2     0.900000E-01   1.00800           0
      7031 MEMB     61       CHL1     H15B     HGA2     0.900000E-01   1.00800           0
      7032 MEMB     61       CHL1     C16      CRL2    -0.180000       12.0110           0
      7033 MEMB     61       CHL1     H16A     HGA2     0.900000E-01   1.00800           0
      7034 MEMB     61       CHL1     H16B     HGA2     0.900000E-01   1.00800           0
      7035 MEMB     61       CHL1     C17      CRL1    -0.900000E-01   12.0110           0
      7036 MEMB     61       CHL1     H17      HGA1     0.900000E-01   1.00800           0
      7037 MEMB     61       CHL1     C13      CRL1      0.00000       12.0110           0
      7038 MEMB     61       CHL1     C18      CTL3    -0.270000       12.0110           0
      7039 MEMB     61       CHL1     H18A     HAL3     0.900000E-01   1.00800           0
      7040 MEMB     61       CHL1     H18B     HAL3     0.900000E-01   1.00800           0
      7041 MEMB     61       CHL1     H18C     HAL3     0.900000E-01   1.00800           0
      7042 MEMB     61       CHL1     C12      CRL2    -0.180000       12.0110           0
      7043 MEMB     61       CHL1     H12A     HGA2     0.900000E-01   1.00800           0
      7044 MEMB     61       CHL1     H12B     HGA2     0.900000E-01   1.00800           0
      7045 MEMB     61       CHL1     C11      CRL2    -0.180000       12.0110           0
      7046 MEMB     61       CHL1     H11A     HGA2     0.900000E-01   1.00800           0
      7047 MEMB     61       CHL1     H11B     HGA2     0.900000E-01   1.00800           0
      7048 MEMB     61       CHL1     C9       CRL1    -0.900000E-01   12.0110           0
      7049 MEMB     61       CHL1     H9       HGA1     0.900000E-01   1.00800           0
      7050 MEMB     61       CHL1     C10      CRL1      0.00000       12.0110           0
      7051 MEMB     61       CHL1     C19      CTL3    -0.270000       12.0110           0
      7052 MEMB     61       CHL1     H19A     HAL3     0.900000E-01   1.00800           0
      7053 MEMB     61       CHL1     H19B     HAL3     0.900000E-01   1.00800           0
      7054 MEMB     61       CHL1     H19C     HAL3     0.900000E-01   1.00800           0
      7055 MEMB     61       CHL1     C1       CRL2    -0.180000       12.0110           0
      7056 MEMB     61       CHL1     H1A      HGA2     0.900000E-01   1.00800           0
      7057 MEMB     61       CHL1     H1B      HGA2     0.900000E-01   1.00800           0
      7058 MEMB     61       CHL1     C2       CRL2    -0.180000       12.0110           0
      7059 MEMB     61       CHL1     H2A      HGA2     0.900000E-01   1.00800           0
      7060 MEMB     61       CHL1     H2B      HGA2     0.900000E-01   1.00800           0
      7061 MEMB     61       CHL1     C20      CTL1    -0.900000E-01   12.0110           0
      7062 MEMB     61       CHL1     H20      HAL1     0.900000E-01   1.00800           0
      7063 MEMB     61       CHL1     C21      CTL3    -0.270000       12.0110           0
      7064 MEMB     61       CHL1     H21A     HAL3     0.900000E-01   1.00800           0
      7065 MEMB     61       CHL1     H21B     HAL3     0.900000E-01   1.00800           0
      7066 MEMB     61       CHL1     H21C     HAL3     0.900000E-01   1.00800           0
      7067 MEMB     61       CHL1     C22      CTL2    -0.180000       12.0110           0
      7068 MEMB     61       CHL1     H22A     HAL2     0.900000E-01   1.00800           0
      7069 MEMB     61       CHL1     H22B     HAL2     0.900000E-01   1.00800           0
      7070 MEMB     61       CHL1     C23      CTL2    -0.180000       12.0110           0
      7071 MEMB     61       CHL1     H23A     HAL2     0.900000E-01   1.00800           0
      7072 MEMB     61       CHL1     H23B     HAL2     0.900000E-01   1.00800           0
      7073 MEMB     61       CHL1     C24      CTL2    -0.180000       12.0110           0
      7074 MEMB     61       CHL1     H24A     HAL2     0.900000E-01   1.00800           0
      7075 MEMB     61       CHL1     H24B     HAL2     0.900000E-01   1.00800           0
      7076 MEMB     61       CHL1     C25      CTL1    -0.900000E-01   12.0110           0
      7077 MEMB     61       CHL1     H25      HAL1     0.900000E-01   1.00800           0
      7078 MEMB     61       CHL1     C26      CTL3    -0.270000       12.0110           0
      7079 MEMB     61       CHL1     H26A     HAL3     0.900000E-01   1.00800           0
      7080 MEMB     61       CHL1     H26B     HAL3     0.900000E-01   1.00800           0
      7081 MEMB     61       CHL1     H26C     HAL3     0.900000E-01   1.00800           0
      7082 MEMB     61       CHL1     C27      CTL3    -0.270000       12.0110           0
      7083 MEMB     61       CHL1     H27A     HAL3     0.900000E-01   1.00800           0
      7084 MEMB     61       CHL1     H27B     HAL3     0.900000E-01   1.00800           0
      7085 MEMB     61       CHL1     H27C     HAL3     0.900000E-01   1.00800           0
      7086 MEMB     62       SAPI     C12      CC3161   0.140000       12.0110           0
      7087 MEMB     62       SAPI     H2       HCA1     0.900000E-01   1.00800           0
      7088 MEMB     62       SAPI     O2       OC311   -0.650000       15.9994           0
      7089 MEMB     62       SAPI     HO2      HCP1     0.420000       1.00800           0
      7090 MEMB     62       SAPI     C13      CC3161   0.140000       12.0110           0
      7091 MEMB     62       SAPI     H3       HCA1     0.900000E-01   1.00800           0
      7092 MEMB     62       SAPI     O3       OC311   -0.650000       15.9994           0
      7093 MEMB     62       SAPI     HO3      HCP1     0.420000       1.00800           0
      7094 MEMB     62       SAPI     C14      CC3161   0.140000       12.0110           0
      7095 MEMB     62       SAPI     H4       HCA1     0.900000E-01   1.00800           0
      7096 MEMB     62       SAPI     O4       OC311   -0.650000       15.9994           0
      7097 MEMB     62       SAPI     HO4      HCP1     0.420000       1.00800           0
      7098 MEMB     62       SAPI     C15      CC3161   0.140000       12.0110           0
      7099 MEMB     62       SAPI     H5       HCA1     0.900000E-01   1.00800           0
      7100 MEMB     62       SAPI     O5       OC311   -0.650000       15.9994           0
      7101 MEMB     62       SAPI     HO5      HCP1     0.420000       1.00800           0
      7102 MEMB     62       SAPI     C16      CC3161   0.140000       12.0110           0
      7103 MEMB     62       SAPI     H6       HCA1     0.900000E-01   1.00800           0
      7104 MEMB     62       SAPI     O6       OC311   -0.650000       15.9994           0
      7105 MEMB     62       SAPI     HO6      HCP1     0.420000       1.00800           0
      7106 MEMB     62       SAPI     C11      CC3161  -0.800000E-01   12.0110           0
      7107 MEMB     62       SAPI     H1       HCA1     0.900000E-01   1.00800           0
      7108 MEMB     62       SAPI     P        PL        1.59000       30.9740           0
      7109 MEMB     62       SAPI     O13      O2L     -0.780000       15.9994           0
      7110 MEMB     62       SAPI     O14      O2L     -0.780000       15.9994           0
      7111 MEMB     62       SAPI     O12      OC30P   -0.570000       15.9994           0
      7112 MEMB     62       SAPI     O11      OSLP    -0.570000       15.9994           0
      7113 MEMB     62       SAPI     C1       CTL2    -0.800000E-01   12.0110           0
      7114 MEMB     62       SAPI     HA       HAL2     0.900000E-01   1.00800           0
      7115 MEMB     62       SAPI     HB       HAL2     0.900000E-01   1.00800           0
      7116 MEMB     62       SAPI     C2       CTL1     0.170000       12.0110           0
      7117 MEMB     62       SAPI     HS       HAL1     0.900000E-01   1.00800           0
      7118 MEMB     62       SAPI     O21      OSL     -0.490000       15.9994           0
      7119 MEMB     62       SAPI     C21      CL       0.900000       12.0110           0
      7120 MEMB     62       SAPI     O22      OBL     -0.630000       15.9994           0
      7121 MEMB     62       SAPI     C22      CTL2    -0.220000       12.0110           0
      7122 MEMB     62       SAPI     H2R      HAL2     0.900000E-01   1.00800           0
      7123 MEMB     62       SAPI     H2S      HAL2     0.900000E-01   1.00800           0
      7124 MEMB     62       SAPI     C3       CTL2     0.800000E-01   12.0110           0
      7125 MEMB     62       SAPI     HX       HAL2     0.900000E-01   1.00800           0
      7126 MEMB     62       SAPI     HY       HAL2     0.900000E-01   1.00800           0
      7127 MEMB     62       SAPI     O31      OSL     -0.490000       15.9994           0
      7128 MEMB     62       SAPI     C31      CL       0.900000       12.0110           0
      7129 MEMB     62       SAPI     O32      OBL     -0.630000       15.9994           0
      7130 MEMB     62       SAPI     C32      CTL2    -0.220000       12.0110           0
      7131 MEMB     62       SAPI     H2X      HAL2     0.900000E-01   1.00800           0
      7132 MEMB     62       SAPI     H2Y      HAL2     0.900000E-01   1.00800           0
      7133 MEMB     62       SAPI     C23      CTL2    -0.180000       12.0110           0
      7134 MEMB     62       SAPI     H3R      HAL2     0.900000E-01   1.00800           0
      7135 MEMB     62       SAPI     H3S      HAL2     0.900000E-01   1.00800           0
      7136 MEMB     62       SAPI     C24      CTL2    -0.180000       12.0110           0
      7137 MEMB     62       SAPI     H4R      HAL2     0.900000E-01   1.00800           0
      7138 MEMB     62       SAPI     H4S      HAL2     0.900000E-01   1.00800           0
      7139 MEMB     62       SAPI     C25      CEL1    -0.150000       12.0110           0
      7140 MEMB     62       SAPI     H5R      HEL1     0.150000       1.00800           0
      7141 MEMB     62       SAPI     C26      CEL1    -0.150000       12.0110           0
      7142 MEMB     62       SAPI     H6R      HEL1     0.150000       1.00800           0
      7143 MEMB     62       SAPI     C27      CTL2    -0.180000       12.0110           0
      7144 MEMB     62       SAPI     H7R      HAL2     0.900000E-01   1.00800           0
      7145 MEMB     62       SAPI     H7S      HAL2     0.900000E-01   1.00800           0
      7146 MEMB     62       SAPI     C28      CEL1    -0.150000       12.0110           0
      7147 MEMB     62       SAPI     H8R      HEL1     0.150000       1.00800           0
      7148 MEMB     62       SAPI     C29      CEL1    -0.150000       12.0110           0
      7149 MEMB     62       SAPI     H9R      HEL1     0.150000       1.00800           0
      7150 MEMB     62       SAPI     C210     CTL2    -0.180000       12.0110           0
      7151 MEMB     62       SAPI     H10R     HAL2     0.900000E-01   1.00800           0
      7152 MEMB     62       SAPI     H10S     HAL2     0.900000E-01   1.00800           0
      7153 MEMB     62       SAPI     C211     CEL1    -0.150000       12.0110           0
      7154 MEMB     62       SAPI     H11R     HEL1     0.150000       1.00800           0
      7155 MEMB     62       SAPI     C212     CEL1    -0.150000       12.0110           0
      7156 MEMB     62       SAPI     H12R     HEL1     0.150000       1.00800           0
      7157 MEMB     62       SAPI     C213     CTL2    -0.180000       12.0110           0
      7158 MEMB     62       SAPI     H13R     HAL2     0.900000E-01   1.00800           0
      7159 MEMB     62       SAPI     H13S     HAL2     0.900000E-01   1.00800           0
      7160 MEMB     62       SAPI     C214     CEL1    -0.150000       12.0110           0
      7161 MEMB     62       SAPI     H14R     HEL1     0.150000       1.00800           0
      7162 MEMB     62       SAPI     C215     CEL1    -0.150000       12.0110           0
      7163 MEMB     62       SAPI     H15R     HEL1     0.150000       1.00800           0
      7164 MEMB     62       SAPI     C216     CTL2    -0.180000       12.0110           0
      7165 MEMB     62       SAPI     H16R     HAL2     0.900000E-01   1.00800           0
      7166 MEMB     62       SAPI     H16S     HAL2     0.900000E-01   1.00800           0
      7167 MEMB     62       SAPI     C217     CTL2    -0.180000       12.0110           0
      7168 MEMB     62       SAPI     H17R     HAL2     0.900000E-01   1.00800           0
      7169 MEMB     62       SAPI     H17S     HAL2     0.900000E-01   1.00800           0
      7170 MEMB     62       SAPI     C218     CTL2    -0.180000       12.0110           0
      7171 MEMB     62       SAPI     H18R     HAL2     0.900000E-01   1.00800           0
      7172 MEMB     62       SAPI     H18S     HAL2     0.900000E-01   1.00800           0
      7173 MEMB     62       SAPI     C219     CTL2    -0.180000       12.0110           0
      7174 MEMB     62       SAPI     H19R     HAL2     0.900000E-01   1.00800           0
      7175 MEMB     62       SAPI     H19S     HAL2     0.900000E-01   1.00800           0
      7176 MEMB     62       SAPI     C220     CTL3    -0.270000       12.0110           0
      7177 MEMB     62       SAPI     H20R     HAL3     0.900000E-01   1.00800           0
      7178 MEMB     62       SAPI     H20S     HAL3     0.900000E-01   1.00800           0
      7179 MEMB     62       SAPI     H20T     HAL3     0.900000E-01   1.00800           0
      7180 MEMB     62       SAPI     C33      CTL2    -0.180000       12.0110           0
      7181 MEMB     62       SAPI     H3X      HAL2     0.900000E-01   1.00800           0
      7182 MEMB     62       SAPI     H3Y      HAL2     0.900000E-01   1.00800           0
      7183 MEMB     62       SAPI     C34      CTL2    -0.180000       12.0110           0
      7184 MEMB     62       SAPI     H4X      HAL2     0.900000E-01   1.00800           0
      7185 MEMB     62       SAPI     H4Y      HAL2     0.900000E-01   1.00800           0
      7186 MEMB     62       SAPI     C35      CTL2    -0.180000       12.0110           0
      7187 MEMB     62       SAPI     H5X      HAL2     0.900000E-01   1.00800           0
      7188 MEMB     62       SAPI     H5Y      HAL2     0.900000E-01   1.00800           0
      7189 MEMB     62       SAPI     C36      CTL2    -0.180000       12.0110           0
      7190 MEMB     62       SAPI     H6X      HAL2     0.900000E-01   1.00800           0
      7191 MEMB     62       SAPI     H6Y      HAL2     0.900000E-01   1.00800           0
      7192 MEMB     62       SAPI     C37      CTL2    -0.180000       12.0110           0
      7193 MEMB     62       SAPI     H7X      HAL2     0.900000E-01   1.00800           0
      7194 MEMB     62       SAPI     H7Y      HAL2     0.900000E-01   1.00800           0
      7195 MEMB     62       SAPI     C38      CTL2    -0.180000       12.0110           0
      7196 MEMB     62       SAPI     H8X      HAL2     0.900000E-01   1.00800           0
      7197 MEMB     62       SAPI     H8Y      HAL2     0.900000E-01   1.00800           0
      7198 MEMB     62       SAPI     C39      CTL2    -0.180000       12.0110           0
      7199 MEMB     62       SAPI     H9X      HAL2     0.900000E-01   1.00800           0
      7200 MEMB     62       SAPI     H9Y      HAL2     0.900000E-01   1.00800           0
      7201 MEMB     62       SAPI     C310     CTL2    -0.180000       12.0110           0
      7202 MEMB     62       SAPI     H10X     HAL2     0.900000E-01   1.00800           0
      7203 MEMB     62       SAPI     H10Y     HAL2     0.900000E-01   1.00800           0
      7204 MEMB     62       SAPI     C311     CTL2    -0.180000       12.0110           0
      7205 MEMB     62       SAPI     H11X     HAL2     0.900000E-01   1.00800           0
      7206 MEMB     62       SAPI     H11Y     HAL2     0.900000E-01   1.00800           0
      7207 MEMB     62       SAPI     C312     CTL2    -0.180000       12.0110           0
      7208 MEMB     62       SAPI     H12X     HAL2     0.900000E-01   1.00800           0
      7209 MEMB     62       SAPI     H12Y     HAL2     0.900000E-01   1.00800           0
      7210 MEMB     62       SAPI     C313     CTL2    -0.180000       12.0110           0
      7211 MEMB     62       SAPI     H13X     HAL2     0.900000E-01   1.00800           0
      7212 MEMB     62       SAPI     H13Y     HAL2     0.900000E-01   1.00800           0
      7213 MEMB     62       SAPI     C314     CTL2    -0.180000       12.0110           0
      7214 MEMB     62       SAPI     H14X     HAL2     0.900000E-01   1.00800           0
      7215 MEMB     62       SAPI     H14Y     HAL2     0.900000E-01   1.00800           0
      7216 MEMB     62       SAPI     C315     CTL2    -0.180000       12.0110           0
      7217 MEMB     62       SAPI     H15X     HAL2     0.900000E-01   1.00800           0
      7218 MEMB     62       SAPI     H15Y     HAL2     0.900000E-01   1.00800           0
      7219 MEMB     62       SAPI     C316     CTL2    -0.180000       12.0110           0
      7220 MEMB     62       SAPI     H16X     HAL2     0.900000E-01   1.00800           0
      7221 MEMB     62       SAPI     H16Y     HAL2     0.900000E-01   1.00800           0
      7222 MEMB     62       SAPI     C317     CTL2    -0.180000       12.0110           0
      7223 MEMB     62       SAPI     H17X     HAL2     0.900000E-01   1.00800           0
      7224 MEMB     62       SAPI     H17Y     HAL2     0.900000E-01   1.00800           0
      7225 MEMB     62       SAPI     C318     CTL3    -0.270000       12.0110           0
      7226 MEMB     62       SAPI     H18X     HAL3     0.900000E-01   1.00800           0
      7227 MEMB     62       SAPI     H18Y     HAL3     0.900000E-01   1.00800           0
      7228 MEMB     62       SAPI     H18Z     HAL3     0.900000E-01   1.00800           0
      7229 MEMB     63       CHL1     C3       CRL1     0.140000       12.0110           0
      7230 MEMB     63       CHL1     H3       HGA1     0.900000E-01   1.00800           0
      7231 MEMB     63       CHL1     O3       OHL     -0.660000       15.9994           0
      7232 MEMB     63       CHL1     H3'      HOL      0.430000       1.00800           0
      7233 MEMB     63       CHL1     C4       CRL2    -0.180000       12.0110           0
      7234 MEMB     63       CHL1     H4A      HGA2     0.900000E-01   1.00800           0
      7235 MEMB     63       CHL1     H4B      HGA2     0.900000E-01   1.00800           0
      7236 MEMB     63       CHL1     C5       CEL1      0.00000       12.0110           0
      7237 MEMB     63       CHL1     C6       CEL1    -0.150000       12.0110           0
      7238 MEMB     63       CHL1     H6       HEL1     0.150000       1.00800           0
      7239 MEMB     63       CHL1     C7       CRL2    -0.180000       12.0110           0
      7240 MEMB     63       CHL1     H7A      HGA2     0.900000E-01   1.00800           0
      7241 MEMB     63       CHL1     H7B      HGA2     0.900000E-01   1.00800           0
      7242 MEMB     63       CHL1     C8       CRL1    -0.900000E-01   12.0110           0
      7243 MEMB     63       CHL1     H8       HGA1     0.900000E-01   1.00800           0
      7244 MEMB     63       CHL1     C14      CRL1    -0.900000E-01   12.0110           0
      7245 MEMB     63       CHL1     H14      HGA1     0.900000E-01   1.00800           0
      7246 MEMB     63       CHL1     C15      CRL2    -0.180000       12.0110           0
      7247 MEMB     63       CHL1     H15A     HGA2     0.900000E-01   1.00800           0
      7248 MEMB     63       CHL1     H15B     HGA2     0.900000E-01   1.00800           0
      7249 MEMB     63       CHL1     C16      CRL2    -0.180000       12.0110           0
      7250 MEMB     63       CHL1     H16A     HGA2     0.900000E-01   1.00800           0
      7251 MEMB     63       CHL1     H16B     HGA2     0.900000E-01   1.00800           0
      7252 MEMB     63       CHL1     C17      CRL1    -0.900000E-01   12.0110           0
      7253 MEMB     63       CHL1     H17      HGA1     0.900000E-01   1.00800           0
      7254 MEMB     63       CHL1     C13      CRL1      0.00000       12.0110           0
      7255 MEMB     63       CHL1     C18      CTL3    -0.270000       12.0110           0
      7256 MEMB     63       CHL1     H18A     HAL3     0.900000E-01   1.00800           0
      7257 MEMB     63       CHL1     H18B     HAL3     0.900000E-01   1.00800           0
      7258 MEMB     63       CHL1     H18C     HAL3     0.900000E-01   1.00800           0
      7259 MEMB     63       CHL1     C12      CRL2    -0.180000       12.0110           0
      7260 MEMB     63       CHL1     H12A     HGA2     0.900000E-01   1.00800           0
      7261 MEMB     63       CHL1     H12B     HGA2     0.900000E-01   1.00800           0
      7262 MEMB     63       CHL1     C11      CRL2    -0.180000       12.0110           0
      7263 MEMB     63       CHL1     H11A     HGA2     0.900000E-01   1.00800           0
      7264 MEMB     63       CHL1     H11B     HGA2     0.900000E-01   1.00800           0
      7265 MEMB     63       CHL1     C9       CRL1    -0.900000E-01   12.0110           0
      7266 MEMB     63       CHL1     H9       HGA1     0.900000E-01   1.00800           0
      7267 MEMB     63       CHL1     C10      CRL1      0.00000       12.0110           0
      7268 MEMB     63       CHL1     C19      CTL3    -0.270000       12.0110           0
      7269 MEMB     63       CHL1     H19A     HAL3     0.900000E-01   1.00800           0
      7270 MEMB     63       CHL1     H19B     HAL3     0.900000E-01   1.00800           0
      7271 MEMB     63       CHL1     H19C     HAL3     0.900000E-01   1.00800           0
      7272 MEMB     63       CHL1     C1       CRL2    -0.180000       12.0110           0
      7273 MEMB     63       CHL1     H1A      HGA2     0.900000E-01   1.00800           0
      7274 MEMB     63       CHL1     H1B      HGA2     0.900000E-01   1.00800           0
      7275 MEMB     63       CHL1     C2       CRL2    -0.180000       12.0110           0
      7276 MEMB     63       CHL1     H2A      HGA2     0.900000E-01   1.00800           0
      7277 MEMB     63       CHL1     H2B      HGA2     0.900000E-01   1.00800           0
      7278 MEMB     63       CHL1     C20      CTL1    -0.900000E-01   12.0110           0
      7279 MEMB     63       CHL1     H20      HAL1     0.900000E-01   1.00800           0
      7280 MEMB     63       CHL1     C21      CTL3    -0.270000       12.0110           0
      7281 MEMB     63       CHL1     H21A     HAL3     0.900000E-01   1.00800           0
      7282 MEMB     63       CHL1     H21B     HAL3     0.900000E-01   1.00800           0
      7283 MEMB     63       CHL1     H21C     HAL3     0.900000E-01   1.00800           0
      7284 MEMB     63       CHL1     C22      CTL2    -0.180000       12.0110           0
      7285 MEMB     63       CHL1     H22A     HAL2     0.900000E-01   1.00800           0
      7286 MEMB     63       CHL1     H22B     HAL2     0.900000E-01   1.00800           0
      7287 MEMB     63       CHL1     C23      CTL2    -0.180000       12.0110           0
      7288 MEMB     63       CHL1     H23A     HAL2     0.900000E-01   1.00800           0
      7289 MEMB     63       CHL1     H23B     HAL2     0.900000E-01   1.00800           0
      7290 MEMB     63       CHL1     C24      CTL2    -0.180000       12.0110           0
      7291 MEMB     63       CHL1     H24A     HAL2     0.900000E-01   1.00800           0
      7292 MEMB     63       CHL1     H24B     HAL2     0.900000E-01   1.00800           0
      7293 MEMB     63       CHL1     C25      CTL1    -0.900000E-01   12.0110           0
      7294 MEMB     63       CHL1     H25      HAL1     0.900000E-01   1.00800           0
      7295 MEMB     63       CHL1     C26      CTL3    -0.270000       12.0110           0
      7296 MEMB     63       CHL1     H26A     HAL3     0.900000E-01   1.00800           0
      7297 MEMB     63       CHL1     H26B     HAL3     0.900000E-01   1.00800           0
      7298 MEMB     63       CHL1     H26C     HAL3     0.900000E-01   1.00800           0
      7299 MEMB     63       CHL1     C27      CTL3    -0.270000       12.0110           0
      7300 MEMB     63       CHL1     H27A     HAL3     0.900000E-01   1.00800           0
      7301 MEMB     63       CHL1     H27B     HAL3     0.900000E-01   1.00800           0
      7302 MEMB     63       CHL1     H27C     HAL3     0.900000E-01   1.00800           0
      7303 MEMB     64       SLPC     N        NTL     -0.600000       14.0070           0
      7304 MEMB     64       SLPC     C13      CTL5    -0.350000       12.0110           0
      7305 MEMB     64       SLPC     H13A     HL       0.250000       1.00800           0
      7306 MEMB     64       SLPC     H13B     HL       0.250000       1.00800           0
      7307 MEMB     64       SLPC     H13C     HL       0.250000       1.00800           0
      7308 MEMB     64       SLPC     C14      CTL5    -0.350000       12.0110           0
      7309 MEMB     64       SLPC     H14A     HL       0.250000       1.00800           0
      7310 MEMB     64       SLPC     H14B     HL       0.250000       1.00800           0
      7311 MEMB     64       SLPC     H14C     HL       0.250000       1.00800           0
      7312 MEMB     64       SLPC     C15      CTL5    -0.350000       12.0110           0
      7313 MEMB     64       SLPC     H15A     HL       0.250000       1.00800           0
      7314 MEMB     64       SLPC     H15B     HL       0.250000       1.00800           0
      7315 MEMB     64       SLPC     H15C     HL       0.250000       1.00800           0
      7316 MEMB     64       SLPC     C12      CTL2    -0.100000       12.0110           0
      7317 MEMB     64       SLPC     H12A     HL       0.250000       1.00800           0
      7318 MEMB     64       SLPC     H12B     HL       0.250000       1.00800           0
      7319 MEMB     64       SLPC     C11      CTL2    -0.800000E-01   12.0110           0
      7320 MEMB     64       SLPC     H11A     HAL2     0.900000E-01   1.00800           0
      7321 MEMB     64       SLPC     H11B     HAL2     0.900000E-01   1.00800           0
      7322 MEMB     64       SLPC     P        PL        1.50000       30.9740           0
      7323 MEMB     64       SLPC     O13      O2L     -0.780000       15.9994           0
      7324 MEMB     64       SLPC     O14      O2L     -0.780000       15.9994           0
      7325 MEMB     64       SLPC     O12      OSLP    -0.570000       15.9994           0
      7326 MEMB     64       SLPC     O11      OSLP    -0.570000       15.9994           0
      7327 MEMB     64       SLPC     C1       CTL2    -0.800000E-01   12.0110           0
      7328 MEMB     64       SLPC     HA       HAL2     0.900000E-01   1.00800           0
      7329 MEMB     64       SLPC     HB       HAL2     0.900000E-01   1.00800           0
      7330 MEMB     64       SLPC     C2       CTL1     0.170000       12.0110           0
      7331 MEMB     64       SLPC     HS       HAL1     0.900000E-01   1.00800           0
      7332 MEMB     64       SLPC     O21      OSL     -0.490000       15.9994           0
      7333 MEMB     64       SLPC     C21      CL       0.900000       12.0110           0
      7334 MEMB     64       SLPC     O22      OBL     -0.630000       15.9994           0
      7335 MEMB     64       SLPC     C22      CTL2    -0.220000       12.0110           0
      7336 MEMB     64       SLPC     H2R      HAL2     0.900000E-01   1.00800           0
      7337 MEMB     64       SLPC     H2S      HAL2     0.900000E-01   1.00800           0
      7338 MEMB     64       SLPC     C3       CTL2     0.800000E-01   12.0110           0
      7339 MEMB     64       SLPC     HX       HAL2     0.900000E-01   1.00800           0
      7340 MEMB     64       SLPC     HY       HAL2     0.900000E-01   1.00800           0
      7341 MEMB     64       SLPC     O31      OSL     -0.490000       15.9994           0
      7342 MEMB     64       SLPC     C31      CL       0.900000       12.0110           0
      7343 MEMB     64       SLPC     O32      OBL     -0.630000       15.9994           0
      7344 MEMB     64       SLPC     C32      CTL2    -0.220000       12.0110           0
      7345 MEMB     64       SLPC     H2X      HAL2     0.900000E-01   1.00800           0
      7346 MEMB     64       SLPC     H2Y      HAL2     0.900000E-01   1.00800           0
      7347 MEMB     64       SLPC     C23      CTL2    -0.180000       12.0110           0
      7348 MEMB     64       SLPC     H3R      HAL2     0.900000E-01   1.00800           0
      7349 MEMB     64       SLPC     H3S      HAL2     0.900000E-01   1.00800           0
      7350 MEMB     64       SLPC     C24      CTL2    -0.180000       12.0110           0
      7351 MEMB     64       SLPC     H4R      HAL2     0.900000E-01   1.00800           0
      7352 MEMB     64       SLPC     H4S      HAL2     0.900000E-01   1.00800           0
      7353 MEMB     64       SLPC     C25      CTL2    -0.180000       12.0110           0
      7354 MEMB     64       SLPC     H5R      HAL2     0.900000E-01   1.00800           0
      7355 MEMB     64       SLPC     H5S      HAL2     0.900000E-01   1.00800           0
      7356 MEMB     64       SLPC     C26      CTL2    -0.180000       12.0110           0
      7357 MEMB     64       SLPC     H6R      HAL2     0.900000E-01   1.00800           0
      7358 MEMB     64       SLPC     H6S      HAL2     0.900000E-01   1.00800           0
      7359 MEMB     64       SLPC     C27      CTL2    -0.180000       12.0110           0
      7360 MEMB     64       SLPC     H7R      HAL2     0.900000E-01   1.00800           0
      7361 MEMB     64       SLPC     H7S      HAL2     0.900000E-01   1.00800           0
      7362 MEMB     64       SLPC     C28      CTL2    -0.180000       12.0110           0
      7363 MEMB     64       SLPC     H8R      HAL2     0.900000E-01   1.00800           0
      7364 MEMB     64       SLPC     H8S      HAL2     0.900000E-01   1.00800           0
      7365 MEMB     64       SLPC     C29      CEL1    -0.150000       12.0110           0
      7366 MEMB     64       SLPC     H9R      HEL1     0.150000       1.00800           0
      7367 MEMB     64       SLPC     C210     CEL1    -0.150000       12.0110           0
      7368 MEMB     64       SLPC     H10R     HEL1     0.150000       1.00800           0
      7369 MEMB     64       SLPC     C211     CTL2    -0.180000       12.0110           0
      7370 MEMB     64       SLPC     H11R     HAL2     0.900000E-01   1.00800           0
      7371 MEMB     64       SLPC     H11S     HAL2     0.900000E-01   1.00800           0
      7372 MEMB     64       SLPC     C212     CEL1    -0.150000       12.0110           0
      7373 MEMB     64       SLPC     H12R     HEL1     0.150000       1.00800           0
      7374 MEMB     64       SLPC     C213     CEL1    -0.150000       12.0110           0
      7375 MEMB     64       SLPC     H13R     HEL1     0.150000       1.00800           0
      7376 MEMB     64       SLPC     C214     CTL2    -0.180000       12.0110           0
      7377 MEMB     64       SLPC     H14R     HAL2     0.900000E-01   1.00800           0
      7378 MEMB     64       SLPC     H14S     HAL2     0.900000E-01   1.00800           0
      7379 MEMB     64       SLPC     C215     CTL2    -0.180000       12.0110           0
      7380 MEMB     64       SLPC     H15R     HAL2     0.900000E-01   1.00800           0
      7381 MEMB     64       SLPC     H15S     HAL2     0.900000E-01   1.00800           0
      7382 MEMB     64       SLPC     C216     CTL2    -0.180000       12.0110           0
      7383 MEMB     64       SLPC     H16R     HAL2     0.900000E-01   1.00800           0
      7384 MEMB     64       SLPC     H16S     HAL2     0.900000E-01   1.00800           0
      7385 MEMB     64       SLPC     C217     CTL2    -0.180000       12.0110           0
      7386 MEMB     64       SLPC     H17R     HAL2     0.900000E-01   1.00800           0
      7387 MEMB     64       SLPC     H17S     HAL2     0.900000E-01   1.00800           0
      7388 MEMB     64       SLPC     C218     CTL3    -0.270000       12.0110           0
      7389 MEMB     64       SLPC     H18R     HAL3     0.900000E-01   1.00800           0
      7390 MEMB     64       SLPC     H18S     HAL3     0.900000E-01   1.00800           0
      7391 MEMB     64       SLPC     H18T     HAL3     0.900000E-01   1.00800           0
      7392 MEMB     64       SLPC     C33      CTL2    -0.180000       12.0110           0
      7393 MEMB     64       SLPC     H3X      HAL2     0.900000E-01   1.00800           0
      7394 MEMB     64       SLPC     H3Y      HAL2     0.900000E-01   1.00800           0
      7395 MEMB     64       SLPC     C34      CTL2    -0.180000       12.0110           0
      7396 MEMB     64       SLPC     H4X      HAL2     0.900000E-01   1.00800           0
      7397 MEMB     64       SLPC     H4Y      HAL2     0.900000E-01   1.00800           0
      7398 MEMB     64       SLPC     C35      CTL2    -0.180000       12.0110           0
      7399 MEMB     64       SLPC     H5X      HAL2     0.900000E-01   1.00800           0
      7400 MEMB     64       SLPC     H5Y      HAL2     0.900000E-01   1.00800           0
      7401 MEMB     64       SLPC     C36      CTL2    -0.180000       12.0110           0
      7402 MEMB     64       SLPC     H6X      HAL2     0.900000E-01   1.00800           0
      7403 MEMB     64       SLPC     H6Y      HAL2     0.900000E-01   1.00800           0
      7404 MEMB     64       SLPC     C37      CTL2    -0.180000       12.0110           0
      7405 MEMB     64       SLPC     H7X      HAL2     0.900000E-01   1.00800           0
      7406 MEMB     64       SLPC     H7Y      HAL2     0.900000E-01   1.00800           0
      7407 MEMB     64       SLPC     C38      CTL2    -0.180000       12.0110           0
      7408 MEMB     64       SLPC     H8X      HAL2     0.900000E-01   1.00800           0
      7409 MEMB     64       SLPC     H8Y      HAL2     0.900000E-01   1.00800           0
      7410 MEMB     64       SLPC     C39      CTL2    -0.180000       12.0110           0
      7411 MEMB     64       SLPC     H9X      HAL2     0.900000E-01   1.00800           0
      7412 MEMB     64       SLPC     H9Y      HAL2     0.900000E-01   1.00800           0
      7413 MEMB     64       SLPC     C310     CTL2    -0.180000       12.0110           0
      7414 MEMB     64       SLPC     H10X     HAL2     0.900000E-01   1.00800           0
      7415 MEMB     64       SLPC     H10Y     HAL2     0.900000E-01   1.00800           0
      7416 MEMB     64       SLPC     C311     CTL2    -0.180000       12.0110           0
      7417 MEMB     64       SLPC     H11X     HAL2     0.900000E-01   1.00800           0
      7418 MEMB     64       SLPC     H11Y     HAL2     0.900000E-01   1.00800           0
      7419 MEMB     64       SLPC     C312     CTL2    -0.180000       12.0110           0
      7420 MEMB     64       SLPC     H12X     HAL2     0.900000E-01   1.00800           0
      7421 MEMB     64       SLPC     H12Y     HAL2     0.900000E-01   1.00800           0
      7422 MEMB     64       SLPC     C313     CTL2    -0.180000       12.0110           0
      7423 MEMB     64       SLPC     H13X     HAL2     0.900000E-01   1.00800           0
      7424 MEMB     64       SLPC     H13Y     HAL2     0.900000E-01   1.00800           0
      7425 MEMB     64       SLPC     C314     CTL2    -0.180000       12.0110           0
      7426 MEMB     64       SLPC     H14X     HAL2     0.900000E-01   1.00800           0
      7427 MEMB     64       SLPC     H14Y     HAL2     0.900000E-01   1.00800           0
      7428 MEMB     64       SLPC     C315     CTL2    -0.180000       12.0110           0
      7429 MEMB     64       SLPC     H15X     HAL2     0.900000E-01   1.00800           0
      7430 MEMB     64       SLPC     H15Y     HAL2     0.900000E-01   1.00800           0
      7431 MEMB     64       SLPC     C316     CTL2    -0.180000       12.0110           0
      7432 MEMB     64       SLPC     H16X     HAL2     0.900000E-01   1.00800           0
      7433 MEMB     64       SLPC     H16Y     HAL2     0.900000E-01   1.00800           0
      7434 MEMB     64       SLPC     C317     CTL2    -0.180000       12.0110           0
      7435 MEMB     64       SLPC     H17X     HAL2     0.900000E-01   1.00800           0
      7436 MEMB     64       SLPC     H17Y     HAL2     0.900000E-01   1.00800           0
      7437 MEMB     64       SLPC     C318     CTL3    -0.270000       12.0110           0
      7438 MEMB     64       SLPC     H18X     HAL3     0.900000E-01   1.00800           0
      7439 MEMB     64       SLPC     H18Y     HAL3     0.900000E-01   1.00800           0
      7440 MEMB     64       SLPC     H18Z     HAL3     0.900000E-01   1.00800           0
      7441 MEMB     65       SAPE     N        NH3L    -0.300000       14.0070           0
      7442 MEMB     65       SAPE     HN1      HCL      0.330000       1.00800           0
      7443 MEMB     65       SAPE     HN2      HCL      0.330000       1.00800           0
      7444 MEMB     65       SAPE     HN3      HCL      0.330000       1.00800           0
      7445 MEMB     65       SAPE     C12      CTL2     0.130000       12.0110           0
      7446 MEMB     65       SAPE     H12A     HAL2     0.900000E-01   1.00800           0
      7447 MEMB     65       SAPE     H12B     HAL2     0.900000E-01   1.00800           0
      7448 MEMB     65       SAPE     C11      CTL2    -0.800000E-01   12.0110           0
      7449 MEMB     65       SAPE     H11A     HAL2     0.900000E-01   1.00800           0
      7450 MEMB     65       SAPE     H11B     HAL2     0.900000E-01   1.00800           0
      7451 MEMB     65       SAPE     P        PL        1.50000       30.9740           0
      7452 MEMB     65       SAPE     O13      O2L     -0.780000       15.9994           0
      7453 MEMB     65       SAPE     O14      O2L     -0.780000       15.9994           0
      7454 MEMB     65       SAPE     O12      OSLP    -0.570000       15.9994           0
      7455 MEMB     65       SAPE     O11      OSLP    -0.570000       15.9994           0
      7456 MEMB     65       SAPE     C1       CTL2    -0.800000E-01   12.0110           0
      7457 MEMB     65       SAPE     HA       HAL2     0.900000E-01   1.00800           0
      7458 MEMB     65       SAPE     HB       HAL2     0.900000E-01   1.00800           0
      7459 MEMB     65       SAPE     C2       CTL1     0.170000       12.0110           0
      7460 MEMB     65       SAPE     HS       HAL1     0.900000E-01   1.00800           0
      7461 MEMB     65       SAPE     O21      OSL     -0.490000       15.9994           0
      7462 MEMB     65       SAPE     C21      CL       0.900000       12.0110           0
      7463 MEMB     65       SAPE     O22      OBL     -0.630000       15.9994           0
      7464 MEMB     65       SAPE     C22      CTL2    -0.220000       12.0110           0
      7465 MEMB     65       SAPE     H2R      HAL2     0.900000E-01   1.00800           0
      7466 MEMB     65       SAPE     H2S      HAL2     0.900000E-01   1.00800           0
      7467 MEMB     65       SAPE     C3       CTL2     0.800000E-01   12.0110           0
      7468 MEMB     65       SAPE     HX       HAL2     0.900000E-01   1.00800           0
      7469 MEMB     65       SAPE     HY       HAL2     0.900000E-01   1.00800           0
      7470 MEMB     65       SAPE     O31      OSL     -0.490000       15.9994           0
      7471 MEMB     65       SAPE     C31      CL       0.900000       12.0110           0
      7472 MEMB     65       SAPE     O32      OBL     -0.630000       15.9994           0
      7473 MEMB     65       SAPE     C32      CTL2    -0.220000       12.0110           0
      7474 MEMB     65       SAPE     H2X      HAL2     0.900000E-01   1.00800           0
      7475 MEMB     65       SAPE     H2Y      HAL2     0.900000E-01   1.00800           0
      7476 MEMB     65       SAPE     C23      CTL2    -0.180000       12.0110           0
      7477 MEMB     65       SAPE     H3R      HAL2     0.900000E-01   1.00800           0
      7478 MEMB     65       SAPE     H3S      HAL2     0.900000E-01   1.00800           0
      7479 MEMB     65       SAPE     C24      CTL2    -0.180000       12.0110           0
      7480 MEMB     65       SAPE     H4R      HAL2     0.900000E-01   1.00800           0
      7481 MEMB     65       SAPE     H4S      HAL2     0.900000E-01   1.00800           0
      7482 MEMB     65       SAPE     C25      CEL1    -0.150000       12.0110           0
      7483 MEMB     65       SAPE     H5R      HEL1     0.150000       1.00800           0
      7484 MEMB     65       SAPE     C26      CEL1    -0.150000       12.0110           0
      7485 MEMB     65       SAPE     H6R      HEL1     0.150000       1.00800           0
      7486 MEMB     65       SAPE     C27      CTL2    -0.180000       12.0110           0
      7487 MEMB     65       SAPE     H7R      HAL2     0.900000E-01   1.00800           0
      7488 MEMB     65       SAPE     H7S      HAL2     0.900000E-01   1.00800           0
      7489 MEMB     65       SAPE     C28      CEL1    -0.150000       12.0110           0
      7490 MEMB     65       SAPE     H8R      HEL1     0.150000       1.00800           0
      7491 MEMB     65       SAPE     C29      CEL1    -0.150000       12.0110           0
      7492 MEMB     65       SAPE     H9R      HEL1     0.150000       1.00800           0
      7493 MEMB     65       SAPE     C210     CTL2    -0.180000       12.0110           0
      7494 MEMB     65       SAPE     H10R     HAL2     0.900000E-01   1.00800           0
      7495 MEMB     65       SAPE     H10S     HAL2     0.900000E-01   1.00800           0
      7496 MEMB     65       SAPE     C211     CEL1    -0.150000       12.0110           0
      7497 MEMB     65       SAPE     H11R     HEL1     0.150000       1.00800           0
      7498 MEMB     65       SAPE     C212     CEL1    -0.150000       12.0110           0
      7499 MEMB     65       SAPE     H12R     HEL1     0.150000       1.00800           0
      7500 MEMB     65       SAPE     C213     CTL2    -0.180000       12.0110           0
      7501 MEMB     65       SAPE     H13R     HAL2     0.900000E-01   1.00800           0
      7502 MEMB     65       SAPE     H13S     HAL2     0.900000E-01   1.00800           0
      7503 MEMB     65       SAPE     C214     CEL1    -0.150000       12.0110           0
      7504 MEMB     65       SAPE     H14R     HEL1     0.150000       1.00800           0
      7505 MEMB     65       SAPE     C215     CEL1    -0.150000       12.0110           0
      7506 MEMB     65       SAPE     H15R     HEL1     0.150000       1.00800           0
      7507 MEMB     65       SAPE     C216     CTL2    -0.180000       12.0110           0
      7508 MEMB     65       SAPE     H16R     HAL2     0.900000E-01   1.00800           0
      7509 MEMB     65       SAPE     H16S     HAL2     0.900000E-01   1.00800           0
      7510 MEMB     65       SAPE     C217     CTL2    -0.180000       12.0110           0
      7511 MEMB     65       SAPE     H17R     HAL2     0.900000E-01   1.00800           0
      7512 MEMB     65       SAPE     H17S     HAL2     0.900000E-01   1.00800           0
      7513 MEMB     65       SAPE     C218     CTL2    -0.180000       12.0110           0
      7514 MEMB     65       SAPE     H18R     HAL2     0.900000E-01   1.00800           0
      7515 MEMB     65       SAPE     H18S     HAL2     0.900000E-01   1.00800           0
      7516 MEMB     65       SAPE     C219     CTL2    -0.180000       12.0110           0
      7517 MEMB     65       SAPE     H19R     HAL2     0.900000E-01   1.00800           0
      7518 MEMB     65       SAPE     H19S     HAL2     0.900000E-01   1.00800           0
      7519 MEMB     65       SAPE     C220     CTL3    -0.270000       12.0110           0
      7520 MEMB     65       SAPE     H20R     HAL3     0.900000E-01   1.00800           0
      7521 MEMB     65       SAPE     H20S     HAL3     0.900000E-01   1.00800           0
      7522 MEMB     65       SAPE     H20T     HAL3     0.900000E-01   1.00800           0
      7523 MEMB     65       SAPE     C33      CTL2    -0.180000       12.0110           0
      7524 MEMB     65       SAPE     H3X      HAL2     0.900000E-01   1.00800           0
      7525 MEMB     65       SAPE     H3Y      HAL2     0.900000E-01   1.00800           0
      7526 MEMB     65       SAPE     C34      CTL2    -0.180000       12.0110           0
      7527 MEMB     65       SAPE     H4X      HAL2     0.900000E-01   1.00800           0
      7528 MEMB     65       SAPE     H4Y      HAL2     0.900000E-01   1.00800           0
      7529 MEMB     65       SAPE     C35      CTL2    -0.180000       12.0110           0
      7530 MEMB     65       SAPE     H5X      HAL2     0.900000E-01   1.00800           0
      7531 MEMB     65       SAPE     H5Y      HAL2     0.900000E-01   1.00800           0
      7532 MEMB     65       SAPE     C36      CTL2    -0.180000       12.0110           0
      7533 MEMB     65       SAPE     H6X      HAL2     0.900000E-01   1.00800           0
      7534 MEMB     65       SAPE     H6Y      HAL2     0.900000E-01   1.00800           0
      7535 MEMB     65       SAPE     C37      CTL2    -0.180000       12.0110           0
      7536 MEMB     65       SAPE     H7X      HAL2     0.900000E-01   1.00800           0
      7537 MEMB     65       SAPE     H7Y      HAL2     0.900000E-01   1.00800           0
      7538 MEMB     65       SAPE     C38      CTL2    -0.180000       12.0110           0
      7539 MEMB     65       SAPE     H8X      HAL2     0.900000E-01   1.00800           0
      7540 MEMB     65       SAPE     H8Y      HAL2     0.900000E-01   1.00800           0
      7541 MEMB     65       SAPE     C39      CTL2    -0.180000       12.0110           0
      7542 MEMB     65       SAPE     H9X      HAL2     0.900000E-01   1.00800           0
      7543 MEMB     65       SAPE     H9Y      HAL2     0.900000E-01   1.00800           0
      7544 MEMB     65       SAPE     C310     CTL2    -0.180000       12.0110           0
      7545 MEMB     65       SAPE     H10X     HAL2     0.900000E-01   1.00800           0
      7546 MEMB     65       SAPE     H10Y     HAL2     0.900000E-01   1.00800           0
      7547 MEMB     65       SAPE     C311     CTL2    -0.180000       12.0110           0
      7548 MEMB     65       SAPE     H11X     HAL2     0.900000E-01   1.00800           0
      7549 MEMB     65       SAPE     H11Y     HAL2     0.900000E-01   1.00800           0
      7550 MEMB     65       SAPE     C312     CTL2    -0.180000       12.0110           0
      7551 MEMB     65       SAPE     H12X     HAL2     0.900000E-01   1.00800           0
      7552 MEMB     65       SAPE     H12Y     HAL2     0.900000E-01   1.00800           0
      7553 MEMB     65       SAPE     C313     CTL2    -0.180000       12.0110           0
      7554 MEMB     65       SAPE     H13X     HAL2     0.900000E-01   1.00800           0
      7555 MEMB     65       SAPE     H13Y     HAL2     0.900000E-01   1.00800           0
      7556 MEMB     65       SAPE     C314     CTL2    -0.180000       12.0110           0
      7557 MEMB     65       SAPE     H14X     HAL2     0.900000E-01   1.00800           0
      7558 MEMB     65       SAPE     H14Y     HAL2     0.900000E-01   1.00800           0
      7559 MEMB     65       SAPE     C315     CTL2    -0.180000       12.0110           0
      7560 MEMB     65       SAPE     H15X     HAL2     0.900000E-01   1.00800           0
      7561 MEMB     65       SAPE     H15Y     HAL2     0.900000E-01   1.00800           0
      7562 MEMB     65       SAPE     C316     CTL2    -0.180000       12.0110           0
      7563 MEMB     65       SAPE     H16X     HAL2     0.900000E-01   1.00800           0
      7564 MEMB     65       SAPE     H16Y     HAL2     0.900000E-01   1.00800           0
      7565 MEMB     65       SAPE     C317     CTL2    -0.180000       12.0110           0
      7566 MEMB     65       SAPE     H17X     HAL2     0.900000E-01   1.00800           0
      7567 MEMB     65       SAPE     H17Y     HAL2     0.900000E-01   1.00800           0
      7568 MEMB     65       SAPE     C318     CTL3    -0.270000       12.0110           0
      7569 MEMB     65       SAPE     H18X     HAL3     0.900000E-01   1.00800           0
      7570 MEMB     65       SAPE     H18Y     HAL3     0.900000E-01   1.00800           0
      7571 MEMB     65       SAPE     H18Z     HAL3     0.900000E-01   1.00800           0
      7572 MEMB     66       SAPS     N        NH3L    -0.300000       14.0070           0
      7573 MEMB     66       SAPS     HN1      HCL      0.330000       1.00800           0
      7574 MEMB     66       SAPS     HN2      HCL      0.330000       1.00800           0
      7575 MEMB     66       SAPS     HN3      HCL      0.330000       1.00800           0
      7576 MEMB     66       SAPS     C12      CTL1     0.210000       12.0110           0
      7577 MEMB     66       SAPS     H12A     HBL      0.100000       1.00800           0
      7578 MEMB     66       SAPS     C13      CCL      0.340000       12.0110           0
      7579 MEMB     66       SAPS     O13A     OCL     -0.670000       15.9994           0
      7580 MEMB     66       SAPS     O13B     OCL     -0.670000       15.9994           0
      7581 MEMB     66       SAPS     C11      CTL2    -0.800000E-01   12.0110           0
      7582 MEMB     66       SAPS     H11A     HAL2     0.900000E-01   1.00800           0
      7583 MEMB     66       SAPS     H11B     HAL2     0.900000E-01   1.00800           0
      7584 MEMB     66       SAPS     P        PL        1.50000       30.9740           0
      7585 MEMB     66       SAPS     O13      O2L     -0.780000       15.9994           0
      7586 MEMB     66       SAPS     O14      O2L     -0.780000       15.9994           0
      7587 MEMB     66       SAPS     O12      OSLP    -0.570000       15.9994           0
      7588 MEMB     66       SAPS     O11      OSLP    -0.570000       15.9994           0
      7589 MEMB     66       SAPS     C1       CTL2    -0.800000E-01   12.0110           0
      7590 MEMB     66       SAPS     HA       HAL2     0.900000E-01   1.00800           0
      7591 MEMB     66       SAPS     HB       HAL2     0.900000E-01   1.00800           0
      7592 MEMB     66       SAPS     C2       CTL1     0.170000       12.0110           0
      7593 MEMB     66       SAPS     HS       HAL1     0.900000E-01   1.00800           0
      7594 MEMB     66       SAPS     O21      OSL     -0.490000       15.9994           0
      7595 MEMB     66       SAPS     C21      CL       0.900000       12.0110           0
      7596 MEMB     66       SAPS     O22      OBL     -0.630000       15.9994           0
      7597 MEMB     66       SAPS     C22      CTL2    -0.220000       12.0110           0
      7598 MEMB     66       SAPS     H2R      HAL2     0.900000E-01   1.00800           0
      7599 MEMB     66       SAPS     H2S      HAL2     0.900000E-01   1.00800           0
      7600 MEMB     66       SAPS     C3       CTL2     0.800000E-01   12.0110           0
      7601 MEMB     66       SAPS     HX       HAL2     0.900000E-01   1.00800           0
      7602 MEMB     66       SAPS     HY       HAL2     0.900000E-01   1.00800           0
      7603 MEMB     66       SAPS     O31      OSL     -0.490000       15.9994           0
      7604 MEMB     66       SAPS     C31      CL       0.900000       12.0110           0
      7605 MEMB     66       SAPS     O32      OBL     -0.630000       15.9994           0
      7606 MEMB     66       SAPS     C32      CTL2    -0.220000       12.0110           0
      7607 MEMB     66       SAPS     H2X      HAL2     0.900000E-01   1.00800           0
      7608 MEMB     66       SAPS     H2Y      HAL2     0.900000E-01   1.00800           0
      7609 MEMB     66       SAPS     C23      CTL2    -0.180000       12.0110           0
      7610 MEMB     66       SAPS     H3R      HAL2     0.900000E-01   1.00800           0
      7611 MEMB     66       SAPS     H3S      HAL2     0.900000E-01   1.00800           0
      7612 MEMB     66       SAPS     C24      CTL2    -0.180000       12.0110           0
      7613 MEMB     66       SAPS     H4R      HAL2     0.900000E-01   1.00800           0
      7614 MEMB     66       SAPS     H4S      HAL2     0.900000E-01   1.00800           0
      7615 MEMB     66       SAPS     C25      CEL1    -0.150000       12.0110           0
      7616 MEMB     66       SAPS     H5R      HEL1     0.150000       1.00800           0
      7617 MEMB     66       SAPS     C26      CEL1    -0.150000       12.0110           0
      7618 MEMB     66       SAPS     H6R      HEL1     0.150000       1.00800           0
      7619 MEMB     66       SAPS     C27      CTL2    -0.180000       12.0110           0
      7620 MEMB     66       SAPS     H7R      HAL2     0.900000E-01   1.00800           0
      7621 MEMB     66       SAPS     H7S      HAL2     0.900000E-01   1.00800           0
      7622 MEMB     66       SAPS     C28      CEL1    -0.150000       12.0110           0
      7623 MEMB     66       SAPS     H8R      HEL1     0.150000       1.00800           0
      7624 MEMB     66       SAPS     C29      CEL1    -0.150000       12.0110           0
      7625 MEMB     66       SAPS     H9R      HEL1     0.150000       1.00800           0
      7626 MEMB     66       SAPS     C210     CTL2    -0.180000       12.0110           0
      7627 MEMB     66       SAPS     H10R     HAL2     0.900000E-01   1.00800           0
      7628 MEMB     66       SAPS     H10S     HAL2     0.900000E-01   1.00800           0
      7629 MEMB     66       SAPS     C211     CEL1    -0.150000       12.0110           0
      7630 MEMB     66       SAPS     H11R     HEL1     0.150000       1.00800           0
      7631 MEMB     66       SAPS     C212     CEL1    -0.150000       12.0110           0
      7632 MEMB     66       SAPS     H12R     HEL1     0.150000       1.00800           0
      7633 MEMB     66       SAPS     C213     CTL2    -0.180000       12.0110           0
      7634 MEMB     66       SAPS     H13R     HAL2     0.900000E-01   1.00800           0
      7635 MEMB     66       SAPS     H13S     HAL2     0.900000E-01   1.00800           0
      7636 MEMB     66       SAPS     C214     CEL1    -0.150000       12.0110           0
      7637 MEMB     66       SAPS     H14R     HEL1     0.150000       1.00800           0
      7638 MEMB     66       SAPS     C215     CEL1    -0.150000       12.0110           0
      7639 MEMB     66       SAPS     H15R     HEL1     0.150000       1.00800           0
      7640 MEMB     66       SAPS     C216     CTL2    -0.180000       12.0110           0
      7641 MEMB     66       SAPS     H16R     HAL2     0.900000E-01   1.00800           0
      7642 MEMB     66       SAPS     H16S     HAL2     0.900000E-01   1.00800           0
      7643 MEMB     66       SAPS     C217     CTL2    -0.180000       12.0110           0
      7644 MEMB     66       SAPS     H17R     HAL2     0.900000E-01   1.00800           0
      7645 MEMB     66       SAPS     H17S     HAL2     0.900000E-01   1.00800           0
      7646 MEMB     66       SAPS     C218     CTL2    -0.180000       12.0110           0
      7647 MEMB     66       SAPS     H18R     HAL2     0.900000E-01   1.00800           0
      7648 MEMB     66       SAPS     H18S     HAL2     0.900000E-01   1.00800           0
      7649 MEMB     66       SAPS     C219     CTL2    -0.180000       12.0110           0
      7650 MEMB     66       SAPS     H19R     HAL2     0.900000E-01   1.00800           0
      7651 MEMB     66       SAPS     H19S     HAL2     0.900000E-01   1.00800           0
      7652 MEMB     66       SAPS     C220     CTL3    -0.270000       12.0110           0
      7653 MEMB     66       SAPS     H20R     HAL3     0.900000E-01   1.00800           0
      7654 MEMB     66       SAPS     H20S     HAL3     0.900000E-01   1.00800           0
      7655 MEMB     66       SAPS     H20T     HAL3     0.900000E-01   1.00800           0
      7656 MEMB     66       SAPS     C33      CTL2    -0.180000       12.0110           0
      7657 MEMB     66       SAPS     H3X      HAL2     0.900000E-01   1.00800           0
      7658 MEMB     66       SAPS     H3Y      HAL2     0.900000E-01   1.00800           0
      7659 MEMB     66       SAPS     C34      CTL2    -0.180000       12.0110           0
      7660 MEMB     66       SAPS     H4X      HAL2     0.900000E-01   1.00800           0
      7661 MEMB     66       SAPS     H4Y      HAL2     0.900000E-01   1.00800           0
      7662 MEMB     66       SAPS     C35      CTL2    -0.180000       12.0110           0
      7663 MEMB     66       SAPS     H5X      HAL2     0.900000E-01   1.00800           0
      7664 MEMB     66       SAPS     H5Y      HAL2     0.900000E-01   1.00800           0
      7665 MEMB     66       SAPS     C36      CTL2    -0.180000       12.0110           0
      7666 MEMB     66       SAPS     H6X      HAL2     0.900000E-01   1.00800           0
      7667 MEMB     66       SAPS     H6Y      HAL2     0.900000E-01   1.00800           0
      7668 MEMB     66       SAPS     C37      CTL2    -0.180000       12.0110           0
      7669 MEMB     66       SAPS     H7X      HAL2     0.900000E-01   1.00800           0
      7670 MEMB     66       SAPS     H7Y      HAL2     0.900000E-01   1.00800           0
      7671 MEMB     66       SAPS     C38      CTL2    -0.180000       12.0110           0
      7672 MEMB     66       SAPS     H8X      HAL2     0.900000E-01   1.00800           0
      7673 MEMB     66       SAPS     H8Y      HAL2     0.900000E-01   1.00800           0
      7674 MEMB     66       SAPS     C39      CTL2    -0.180000       12.0110           0
      7675 MEMB     66       SAPS     H9X      HAL2     0.900000E-01   1.00800           0
      7676 MEMB     66       SAPS     H9Y      HAL2     0.900000E-01   1.00800           0
      7677 MEMB     66       SAPS     C310     CTL2    -0.180000       12.0110           0
      7678 MEMB     66       SAPS     H10X     HAL2     0.900000E-01   1.00800           0
      7679 MEMB     66       SAPS     H10Y     HAL2     0.900000E-01   1.00800           0
      7680 MEMB     66       SAPS     C311     CTL2    -0.180000       12.0110           0
      7681 MEMB     66       SAPS     H11X     HAL2     0.900000E-01   1.00800           0
      7682 MEMB     66       SAPS     H11Y     HAL2     0.900000E-01   1.00800           0
      7683 MEMB     66       SAPS     C312     CTL2    -0.180000       12.0110           0
      7684 MEMB     66       SAPS     H12X     HAL2     0.900000E-01   1.00800           0
      7685 MEMB     66       SAPS     H12Y     HAL2     0.900000E-01   1.00800           0
      7686 MEMB     66       SAPS     C313     CTL2    -0.180000       12.0110           0
      7687 MEMB     66       SAPS     H13X     HAL2     0.900000E-01   1.00800           0
      7688 MEMB     66       SAPS     H13Y     HAL2     0.900000E-01   1.00800           0
      7689 MEMB     66       SAPS     C314     CTL2    -0.180000       12.0110           0
      7690 MEMB     66       SAPS     H14X     HAL2     0.900000E-01   1.00800           0
      7691 MEMB     66       SAPS     H14Y     HAL2     0.900000E-01   1.00800           0
      7692 MEMB     66       SAPS     C315     CTL2    -0.180000       12.0110           0
      7693 MEMB     66       SAPS     H15X     HAL2     0.900000E-01   1.00800           0
      7694 MEMB     66       SAPS     H15Y     HAL2     0.900000E-01   1.00800           0
      7695 MEMB     66       SAPS     C316     CTL2    -0.180000       12.0110           0
      7696 MEMB     66       SAPS     H16X     HAL2     0.900000E-01   1.00800           0
      7697 MEMB     66       SAPS     H16Y     HAL2     0.900000E-01   1.00800           0
      7698 MEMB     66       SAPS     C317     CTL2    -0.180000       12.0110           0
      7699 MEMB     66       SAPS     H17X     HAL2     0.900000E-01   1.00800           0
      7700 MEMB     66       SAPS     H17Y     HAL2     0.900000E-01   1.00800           0
      7701 MEMB     66       SAPS     C318     CTL3    -0.270000       12.0110           0
      7702 MEMB     66       SAPS     H18X     HAL3     0.900000E-01   1.00800           0
      7703 MEMB     66       SAPS     H18Y     HAL3     0.900000E-01   1.00800           0
      7704 MEMB     66       SAPS     H18Z     HAL3     0.900000E-01   1.00800           0
      7705 MEMB     67       CHL1     C3       CRL1     0.140000       12.0110           0
      7706 MEMB     67       CHL1     H3       HGA1     0.900000E-01   1.00800           0
      7707 MEMB     67       CHL1     O3       OHL     -0.660000       15.9994           0
      7708 MEMB     67       CHL1     H3'      HOL      0.430000       1.00800           0
      7709 MEMB     67       CHL1     C4       CRL2    -0.180000       12.0110           0
      7710 MEMB     67       CHL1     H4A      HGA2     0.900000E-01   1.00800           0
      7711 MEMB     67       CHL1     H4B      HGA2     0.900000E-01   1.00800           0
      7712 MEMB     67       CHL1     C5       CEL1      0.00000       12.0110           0
      7713 MEMB     67       CHL1     C6       CEL1    -0.150000       12.0110           0
      7714 MEMB     67       CHL1     H6       HEL1     0.150000       1.00800           0
      7715 MEMB     67       CHL1     C7       CRL2    -0.180000       12.0110           0
      7716 MEMB     67       CHL1     H7A      HGA2     0.900000E-01   1.00800           0
      7717 MEMB     67       CHL1     H7B      HGA2     0.900000E-01   1.00800           0
      7718 MEMB     67       CHL1     C8       CRL1    -0.900000E-01   12.0110           0
      7719 MEMB     67       CHL1     H8       HGA1     0.900000E-01   1.00800           0
      7720 MEMB     67       CHL1     C14      CRL1    -0.900000E-01   12.0110           0
      7721 MEMB     67       CHL1     H14      HGA1     0.900000E-01   1.00800           0
      7722 MEMB     67       CHL1     C15      CRL2    -0.180000       12.0110           0
      7723 MEMB     67       CHL1     H15A     HGA2     0.900000E-01   1.00800           0
      7724 MEMB     67       CHL1     H15B     HGA2     0.900000E-01   1.00800           0
      7725 MEMB     67       CHL1     C16      CRL2    -0.180000       12.0110           0
      7726 MEMB     67       CHL1     H16A     HGA2     0.900000E-01   1.00800           0
      7727 MEMB     67       CHL1     H16B     HGA2     0.900000E-01   1.00800           0
      7728 MEMB     67       CHL1     C17      CRL1    -0.900000E-01   12.0110           0
      7729 MEMB     67       CHL1     H17      HGA1     0.900000E-01   1.00800           0
      7730 MEMB     67       CHL1     C13      CRL1      0.00000       12.0110           0
      7731 MEMB     67       CHL1     C18      CTL3    -0.270000       12.0110           0
      7732 MEMB     67       CHL1     H18A     HAL3     0.900000E-01   1.00800           0
      7733 MEMB     67       CHL1     H18B     HAL3     0.900000E-01   1.00800           0
      7734 MEMB     67       CHL1     H18C     HAL3     0.900000E-01   1.00800           0
      7735 MEMB     67       CHL1     C12      CRL2    -0.180000       12.0110           0
      7736 MEMB     67       CHL1     H12A     HGA2     0.900000E-01   1.00800           0
      7737 MEMB     67       CHL1     H12B     HGA2     0.900000E-01   1.00800           0
      7738 MEMB     67       CHL1     C11      CRL2    -0.180000       12.0110           0
      7739 MEMB     67       CHL1     H11A     HGA2     0.900000E-01   1.00800           0
      7740 MEMB     67       CHL1     H11B     HGA2     0.900000E-01   1.00800           0
      7741 MEMB     67       CHL1     C9       CRL1    -0.900000E-01   12.0110           0
      7742 MEMB     67       CHL1     H9       HGA1     0.900000E-01   1.00800           0
      7743 MEMB     67       CHL1     C10      CRL1      0.00000       12.0110           0
      7744 MEMB     67       CHL1     C19      CTL3    -0.270000       12.0110           0
      7745 MEMB     67       CHL1     H19A     HAL3     0.900000E-01   1.00800           0
      7746 MEMB     67       CHL1     H19B     HAL3     0.900000E-01   1.00800           0
      7747 MEMB     67       CHL1     H19C     HAL3     0.900000E-01   1.00800           0
      7748 MEMB     67       CHL1     C1       CRL2    -0.180000       12.0110           0
      7749 MEMB     67       CHL1     H1A      HGA2     0.900000E-01   1.00800           0
      7750 MEMB     67       CHL1     H1B      HGA2     0.900000E-01   1.00800           0
      7751 MEMB     67       CHL1     C2       CRL2    -0.180000       12.0110           0
      7752 MEMB     67       CHL1     H2A      HGA2     0.900000E-01   1.00800           0
      7753 MEMB     67       CHL1     H2B      HGA2     0.900000E-01   1.00800           0
      7754 MEMB     67       CHL1     C20      CTL1    -0.900000E-01   12.0110           0
      7755 MEMB     67       CHL1     H20      HAL1     0.900000E-01   1.00800           0
      7756 MEMB     67       CHL1     C21      CTL3    -0.270000       12.0110           0
      7757 MEMB     67       CHL1     H21A     HAL3     0.900000E-01   1.00800           0
      7758 MEMB     67       CHL1     H21B     HAL3     0.900000E-01   1.00800           0
      7759 MEMB     67       CHL1     H21C     HAL3     0.900000E-01   1.00800           0
      7760 MEMB     67       CHL1     C22      CTL2    -0.180000       12.0110           0
      7761 MEMB     67       CHL1     H22A     HAL2     0.900000E-01   1.00800           0
      7762 MEMB     67       CHL1     H22B     HAL2     0.900000E-01   1.00800           0
      7763 MEMB     67       CHL1     C23      CTL2    -0.180000       12.0110           0
      7764 MEMB     67       CHL1     H23A     HAL2     0.900000E-01   1.00800           0
      7765 MEMB     67       CHL1     H23B     HAL2     0.900000E-01   1.00800           0
      7766 MEMB     67       CHL1     C24      CTL2    -0.180000       12.0110           0
      7767 MEMB     67       CHL1     H24A     HAL2     0.900000E-01   1.00800           0
      7768 MEMB     67       CHL1     H24B     HAL2     0.900000E-01   1.00800           0
      7769 MEMB     67       CHL1     C25      CTL1    -0.900000E-01   12.0110           0
      7770 MEMB     67       CHL1     H25      HAL1     0.900000E-01   1.00800           0
      7771 MEMB     67       CHL1     C26      CTL3    -0.270000       12.0110           0
      7772 MEMB     67       CHL1     H26A     HAL3     0.900000E-01   1.00800           0
      7773 MEMB     67       CHL1     H26B     HAL3     0.900000E-01   1.00800           0
      7774 MEMB     67       CHL1     H26C     HAL3     0.900000E-01   1.00800           0
      7775 MEMB     67       CHL1     C27      CTL3    -0.270000       12.0110           0
      7776 MEMB     67       CHL1     H27A     HAL3     0.900000E-01   1.00800           0
      7777 MEMB     67       CHL1     H27B     HAL3     0.900000E-01   1.00800           0
      7778 MEMB     67       CHL1     H27C     HAL3     0.900000E-01   1.00800           0
      7779 MEMB     68       POPC     N        NTL     -0.600000       14.0070           0
      7780 MEMB     68       POPC     C12      CTL2    -0.100000       12.0110           0
      7781 MEMB     68       POPC     H12A     HL       0.250000       1.00800           0
      7782 MEMB     68       POPC     H12B     HL       0.250000       1.00800           0
      7783 MEMB     68       POPC     C13      CTL5    -0.350000       12.0110           0
      7784 MEMB     68       POPC     H13A     HL       0.250000       1.00800           0
      7785 MEMB     68       POPC     H13B     HL       0.250000       1.00800           0
      7786 MEMB     68       POPC     H13C     HL       0.250000       1.00800           0
      7787 MEMB     68       POPC     C14      CTL5    -0.350000       12.0110           0
      7788 MEMB     68       POPC     H14A     HL       0.250000       1.00800           0
      7789 MEMB     68       POPC     H14B     HL       0.250000       1.00800           0
      7790 MEMB     68       POPC     H14C     HL       0.250000       1.00800           0
      7791 MEMB     68       POPC     C15      CTL5    -0.350000       12.0110           0
      7792 MEMB     68       POPC     H15A     HL       0.250000       1.00800           0
      7793 MEMB     68       POPC     H15B     HL       0.250000       1.00800           0
      7794 MEMB     68       POPC     H15C     HL       0.250000       1.00800           0
      7795 MEMB     68       POPC     C11      CTL2    -0.800000E-01   12.0110           0
      7796 MEMB     68       POPC     H11A     HAL2     0.900000E-01   1.00800           0
      7797 MEMB     68       POPC     H11B     HAL2     0.900000E-01   1.00800           0
      7798 MEMB     68       POPC     P        PL        1.50000       30.9740           0
      7799 MEMB     68       POPC     O13      O2L     -0.780000       15.9994           0
      7800 MEMB     68       POPC     O14      O2L     -0.780000       15.9994           0
      7801 MEMB     68       POPC     O12      OSLP    -0.570000       15.9994           0
      7802 MEMB     68       POPC     O11      OSLP    -0.570000       15.9994           0
      7803 MEMB     68       POPC     C1       CTL2    -0.800000E-01   12.0110           0
      7804 MEMB     68       POPC     HA       HAL2     0.900000E-01   1.00800           0
      7805 MEMB     68       POPC     HB       HAL2     0.900000E-01   1.00800           0
      7806 MEMB     68       POPC     C2       CTL1     0.170000       12.0110           0
      7807 MEMB     68       POPC     HS       HAL1     0.900000E-01   1.00800           0
      7808 MEMB     68       POPC     O21      OSL     -0.490000       15.9994           0
      7809 MEMB     68       POPC     C21      CL       0.900000       12.0110           0
      7810 MEMB     68       POPC     O22      OBL     -0.630000       15.9994           0
      7811 MEMB     68       POPC     C22      CTL2    -0.220000       12.0110           0
      7812 MEMB     68       POPC     H2R      HAL2     0.900000E-01   1.00800           0
      7813 MEMB     68       POPC     H2S      HAL2     0.900000E-01   1.00800           0
      7814 MEMB     68       POPC     C3       CTL2     0.800000E-01   12.0110           0
      7815 MEMB     68       POPC     HX       HAL2     0.900000E-01   1.00800           0
      7816 MEMB     68       POPC     HY       HAL2     0.900000E-01   1.00800           0
      7817 MEMB     68       POPC     O31      OSL     -0.490000       15.9994           0
      7818 MEMB     68       POPC     C31      CL       0.900000       12.0110           0
      7819 MEMB     68       POPC     O32      OBL     -0.630000       15.9994           0
      7820 MEMB     68       POPC     C32      CTL2    -0.220000       12.0110           0
      7821 MEMB     68       POPC     H2X      HAL2     0.900000E-01   1.00800           0
      7822 MEMB     68       POPC     H2Y      HAL2     0.900000E-01   1.00800           0
      7823 MEMB     68       POPC     C23      CTL2    -0.180000       12.0110           0
      7824 MEMB     68       POPC     H3R      HAL2     0.900000E-01   1.00800           0
      7825 MEMB     68       POPC     H3S      HAL2     0.900000E-01   1.00800           0
      7826 MEMB     68       POPC     C24      CTL2    -0.180000       12.0110           0
      7827 MEMB     68       POPC     H4R      HAL2     0.900000E-01   1.00800           0
      7828 MEMB     68       POPC     H4S      HAL2     0.900000E-01   1.00800           0
      7829 MEMB     68       POPC     C25      CTL2    -0.180000       12.0110           0
      7830 MEMB     68       POPC     H5R      HAL2     0.900000E-01   1.00800           0
      7831 MEMB     68       POPC     H5S      HAL2     0.900000E-01   1.00800           0
      7832 MEMB     68       POPC     C26      CTL2    -0.180000       12.0110           0
      7833 MEMB     68       POPC     H6R      HAL2     0.900000E-01   1.00800           0
      7834 MEMB     68       POPC     H6S      HAL2     0.900000E-01   1.00800           0
      7835 MEMB     68       POPC     C27      CTL2    -0.180000       12.0110           0
      7836 MEMB     68       POPC     H7R      HAL2     0.900000E-01   1.00800           0
      7837 MEMB     68       POPC     H7S      HAL2     0.900000E-01   1.00800           0
      7838 MEMB     68       POPC     C28      CTL2    -0.180000       12.0110           0
      7839 MEMB     68       POPC     H8R      HAL2     0.900000E-01   1.00800           0
      7840 MEMB     68       POPC     H8S      HAL2     0.900000E-01   1.00800           0
      7841 MEMB     68       POPC     C29      CEL1    -0.150000       12.0110           0
      7842 MEMB     68       POPC     H91      HEL1     0.150000       1.00800           0
      7843 MEMB     68       POPC     C210     CEL1    -0.150000       12.0110           0
      7844 MEMB     68       POPC     H101     HEL1     0.150000       1.00800           0
      7845 MEMB     68       POPC     C211     CTL2    -0.180000       12.0110           0
      7846 MEMB     68       POPC     H11R     HAL2     0.900000E-01   1.00800           0
      7847 MEMB     68       POPC     H11S     HAL2     0.900000E-01   1.00800           0
      7848 MEMB     68       POPC     C212     CTL2    -0.180000       12.0110           0
      7849 MEMB     68       POPC     H12R     HAL2     0.900000E-01   1.00800           0
      7850 MEMB     68       POPC     H12S     HAL2     0.900000E-01   1.00800           0
      7851 MEMB     68       POPC     C213     CTL2    -0.180000       12.0110           0
      7852 MEMB     68       POPC     H13R     HAL2     0.900000E-01   1.00800           0
      7853 MEMB     68       POPC     H13S     HAL2     0.900000E-01   1.00800           0
      7854 MEMB     68       POPC     C214     CTL2    -0.180000       12.0110           0
      7855 MEMB     68       POPC     H14R     HAL2     0.900000E-01   1.00800           0
      7856 MEMB     68       POPC     H14S     HAL2     0.900000E-01   1.00800           0
      7857 MEMB     68       POPC     C215     CTL2    -0.180000       12.0110           0
      7858 MEMB     68       POPC     H15R     HAL2     0.900000E-01   1.00800           0
      7859 MEMB     68       POPC     H15S     HAL2     0.900000E-01   1.00800           0
      7860 MEMB     68       POPC     C216     CTL2    -0.180000       12.0110           0
      7861 MEMB     68       POPC     H16R     HAL2     0.900000E-01   1.00800           0
      7862 MEMB     68       POPC     H16S     HAL2     0.900000E-01   1.00800           0
      7863 MEMB     68       POPC     C217     CTL2    -0.180000       12.0110           0
      7864 MEMB     68       POPC     H17R     HAL2     0.900000E-01   1.00800           0
      7865 MEMB     68       POPC     H17S     HAL2     0.900000E-01   1.00800           0
      7866 MEMB     68       POPC     C218     CTL3    -0.270000       12.0110           0
      7867 MEMB     68       POPC     H18R     HAL3     0.900000E-01   1.00800           0
      7868 MEMB     68       POPC     H18S     HAL3     0.900000E-01   1.00800           0
      7869 MEMB     68       POPC     H18T     HAL3     0.900000E-01   1.00800           0
      7870 MEMB     68       POPC     C33      CTL2    -0.180000       12.0110           0
      7871 MEMB     68       POPC     H3X      HAL2     0.900000E-01   1.00800           0
      7872 MEMB     68       POPC     H3Y      HAL2     0.900000E-01   1.00800           0
      7873 MEMB     68       POPC     C34      CTL2    -0.180000       12.0110           0
      7874 MEMB     68       POPC     H4X      HAL2     0.900000E-01   1.00800           0
      7875 MEMB     68       POPC     H4Y      HAL2     0.900000E-01   1.00800           0
      7876 MEMB     68       POPC     C35      CTL2    -0.180000       12.0110           0
      7877 MEMB     68       POPC     H5X      HAL2     0.900000E-01   1.00800           0
      7878 MEMB     68       POPC     H5Y      HAL2     0.900000E-01   1.00800           0
      7879 MEMB     68       POPC     C36      CTL2    -0.180000       12.0110           0
      7880 MEMB     68       POPC     H6X      HAL2     0.900000E-01   1.00800           0
      7881 MEMB     68       POPC     H6Y      HAL2     0.900000E-01   1.00800           0
      7882 MEMB     68       POPC     C37      CTL2    -0.180000       12.0110           0
      7883 MEMB     68       POPC     H7X      HAL2     0.900000E-01   1.00800           0
      7884 MEMB     68       POPC     H7Y      HAL2     0.900000E-01   1.00800           0
      7885 MEMB     68       POPC     C38      CTL2    -0.180000       12.0110           0
      7886 MEMB     68       POPC     H8X      HAL2     0.900000E-01   1.00800           0
      7887 MEMB     68       POPC     H8Y      HAL2     0.900000E-01   1.00800           0
      7888 MEMB     68       POPC     C39      CTL2    -0.180000       12.0110           0
      7889 MEMB     68       POPC     H9X      HAL2     0.900000E-01   1.00800           0
      7890 MEMB     68       POPC     H9Y      HAL2     0.900000E-01   1.00800           0
      7891 MEMB     68       POPC     C310     CTL2    -0.180000       12.0110           0
      7892 MEMB     68       POPC     H10X     HAL2     0.900000E-01   1.00800           0
      7893 MEMB     68       POPC     H10Y     HAL2     0.900000E-01   1.00800           0
      7894 MEMB     68       POPC     C311     CTL2    -0.180000       12.0110           0
      7895 MEMB     68       POPC     H11X     HAL2     0.900000E-01   1.00800           0
      7896 MEMB     68       POPC     H11Y     HAL2     0.900000E-01   1.00800           0
      7897 MEMB     68       POPC     C312     CTL2    -0.180000       12.0110           0
      7898 MEMB     68       POPC     H12X     HAL2     0.900000E-01   1.00800           0
      7899 MEMB     68       POPC     H12Y     HAL2     0.900000E-01   1.00800           0
      7900 MEMB     68       POPC     C313     CTL2    -0.180000       12.0110           0
      7901 MEMB     68       POPC     H13X     HAL2     0.900000E-01   1.00800           0
      7902 MEMB     68       POPC     H13Y     HAL2     0.900000E-01   1.00800           0
      7903 MEMB     68       POPC     C314     CTL2    -0.180000       12.0110           0
      7904 MEMB     68       POPC     H14X     HAL2     0.900000E-01   1.00800           0
      7905 MEMB     68       POPC     H14Y     HAL2     0.900000E-01   1.00800           0
      7906 MEMB     68       POPC     C315     CTL2    -0.180000       12.0110           0
      7907 MEMB     68       POPC     H15X     HAL2     0.900000E-01   1.00800           0
      7908 MEMB     68       POPC     H15Y     HAL2     0.900000E-01   1.00800           0
      7909 MEMB     68       POPC     C316     CTL3    -0.270000       12.0110           0
      7910 MEMB     68       POPC     H16X     HAL3     0.900000E-01   1.00800           0
      7911 MEMB     68       POPC     H16Y     HAL3     0.900000E-01   1.00800           0
      7912 MEMB     68       POPC     H16Z     HAL3     0.900000E-01   1.00800           0
      7913 MEMB     69       OSM      N        NTL     -0.600000       14.0070           0
      7914 MEMB     69       OSM      C15      CTL5    -0.350000       12.0110           0
      7915 MEMB     69       OSM      H15A     HL       0.250000       1.00800           0
      7916 MEMB     69       OSM      H15B     HL       0.250000       1.00800           0
      7917 MEMB     69       OSM      H15C     HL       0.250000       1.00800           0
      7918 MEMB     69       OSM      C14      CTL5    -0.350000       12.0110           0
      7919 MEMB     69       OSM      H14A     HL       0.250000       1.00800           0
      7920 MEMB     69       OSM      H14B     HL       0.250000       1.00800           0
      7921 MEMB     69       OSM      H14C     HL       0.250000       1.00800           0
      7922 MEMB     69       OSM      C13      CTL5    -0.350000       12.0110           0
      7923 MEMB     69       OSM      H13A     HL       0.250000       1.00800           0
      7924 MEMB     69       OSM      H13B     HL       0.250000       1.00800           0
      7925 MEMB     69       OSM      H13C     HL       0.250000       1.00800           0
      7926 MEMB     69       OSM      C12      CTL2    -0.100000       12.0110           0
      7927 MEMB     69       OSM      H12A     HL       0.250000       1.00800           0
      7928 MEMB     69       OSM      H12B     HL       0.250000       1.00800           0
      7929 MEMB     69       OSM      C11      CTL2    -0.800000E-01   12.0110           0
      7930 MEMB     69       OSM      H11A     HAL2     0.900000E-01   1.00800           0
      7931 MEMB     69       OSM      H11B     HAL2     0.900000E-01   1.00800           0
      7932 MEMB     69       OSM      P        PL        1.50000       30.9740           0
      7933 MEMB     69       OSM      O13      O2L     -0.780000       15.9994           0
      7934 MEMB     69       OSM      O14      O2L     -0.780000       15.9994           0
      7935 MEMB     69       OSM      O11      OSLP    -0.570000       15.9994           0
      7936 MEMB     69       OSM      O12      OSLP    -0.570000       15.9994           0
      7937 MEMB     69       OSM      C1S      CTL2    -0.800000E-01   12.0110           0
      7938 MEMB     69       OSM      H1S      HAL2     0.900000E-01   1.00800           0
      7939 MEMB     69       OSM      H1T      HAL2     0.900000E-01   1.00800           0
      7940 MEMB     69       OSM      NF       NHL     -0.700000       14.0070           0
      7941 MEMB     69       OSM      HNF      H        0.350000       1.00800           0
      7942 MEMB     69       OSM      C2S      CTL1     0.300000       12.0110           0
      7943 MEMB     69       OSM      H2S      HAL1     0.500000E-01   1.00800           0
      7944 MEMB     69       OSM      C3S      CTO1     0.500000       12.0110           0
      7945 MEMB     69       OSM      H3S      HAL1    -0.110000       1.00800           0
      7946 MEMB     69       OSM      O3       OHL     -0.690000       15.9994           0
      7947 MEMB     69       OSM      HO3      HOL      0.300000       1.00800           0
      7948 MEMB     69       OSM      C4S      CEL3    -0.150000       12.0110           0
      7949 MEMB     69       OSM      H4S      HEL1     0.150000       1.00800           0
      7950 MEMB     69       OSM      C5S      CEL3    -0.150000       12.0110           0
      7951 MEMB     69       OSM      H5S      HEL1     0.150000       1.00800           0
      7952 MEMB     69       OSM      C6S      CTL2    -0.180000       12.0110           0
      7953 MEMB     69       OSM      H6S      HAL2     0.900000E-01   1.00800           0
      7954 MEMB     69       OSM      H6T      HAL2     0.900000E-01   1.00800           0
      7955 MEMB     69       OSM      C7S      CTL2    -0.180000       12.0110           0
      7956 MEMB     69       OSM      H7S      HAL2     0.900000E-01   1.00800           0
      7957 MEMB     69       OSM      H7T      HAL2     0.900000E-01   1.00800           0
      7958 MEMB     69       OSM      C8S      CTL2    -0.180000       12.0110           0
      7959 MEMB     69       OSM      H8S      HAL2     0.900000E-01   1.00800           0
      7960 MEMB     69       OSM      H8T      HAL2     0.900000E-01   1.00800           0
      7961 MEMB     69       OSM      C9S      CTL2    -0.180000       12.0110           0
      7962 MEMB     69       OSM      H9S      HAL2     0.900000E-01   1.00800           0
      7963 MEMB     69       OSM      H9T      HAL2     0.900000E-01   1.00800           0
      7964 MEMB     69       OSM      C10S     CTL2    -0.180000       12.0110           0
      7965 MEMB     69       OSM      H10S     HAL2     0.900000E-01   1.00800           0
      7966 MEMB     69       OSM      H10T     HAL2     0.900000E-01   1.00800           0
      7967 MEMB     69       OSM      C11S     CTL2    -0.180000       12.0110           0
      7968 MEMB     69       OSM      H11S     HAL2     0.900000E-01   1.00800           0
      7969 MEMB     69       OSM      H11T     HAL2     0.900000E-01   1.00800           0
      7970 MEMB     69       OSM      C12S     CTL2    -0.180000       12.0110           0
      7971 MEMB     69       OSM      H12S     HAL2     0.900000E-01   1.00800           0
      7972 MEMB     69       OSM      H12T     HAL2     0.900000E-01   1.00800           0
      7973 MEMB     69       OSM      C13S     CTL2    -0.180000       12.0110           0
      7974 MEMB     69       OSM      H13S     HAL2     0.900000E-01   1.00800           0
      7975 MEMB     69       OSM      H13T     HAL2     0.900000E-01   1.00800           0
      7976 MEMB     69       OSM      C14S     CTL2    -0.180000       12.0110           0
      7977 MEMB     69       OSM      H14S     HAL2     0.900000E-01   1.00800           0
      7978 MEMB     69       OSM      H14T     HAL2     0.900000E-01   1.00800           0
      7979 MEMB     69       OSM      C15S     CTL2    -0.180000       12.0110           0
      7980 MEMB     69       OSM      H15S     HAL2     0.900000E-01   1.00800           0
      7981 MEMB     69       OSM      H15T     HAL2     0.900000E-01   1.00800           0
      7982 MEMB     69       OSM      C16S     CTL2    -0.180000       12.0110           0
      7983 MEMB     69       OSM      H16S     HAL2     0.900000E-01   1.00800           0
      7984 MEMB     69       OSM      H16T     HAL2     0.900000E-01   1.00800           0
      7985 MEMB     69       OSM      C17S     CTL2    -0.180000       12.0110           0
      7986 MEMB     69       OSM      H17S     HAL2     0.900000E-01   1.00800           0
      7987 MEMB     69       OSM      H17T     HAL2     0.900000E-01   1.00800           0
      7988 MEMB     69       OSM      C18S     CTL3    -0.270000       12.0110           0
      7989 MEMB     69       OSM      H18S     HAL3     0.900000E-01   1.00800           0
      7990 MEMB     69       OSM      H18T     HAL3     0.900000E-01   1.00800           0
      7991 MEMB     69       OSM      H18U     HAL3     0.900000E-01   1.00800           0
      7992 MEMB     69       OSM      C1F      C        0.550000       12.0110           0
      7993 MEMB     69       OSM      OF       O       -0.600000       15.9994           0
      7994 MEMB     69       OSM      C2F      CTL2    -0.700000E-01   12.0110           0
      7995 MEMB     69       OSM      H2F      HAL2     0.600000E-01   1.00800           0
      7996 MEMB     69       OSM      H2G      HAL2     0.600000E-01   1.00800           0
      7997 MEMB     69       OSM      C3F      CTL2    -0.180000       12.0110           0
      7998 MEMB     69       OSM      H3F      HAL2     0.900000E-01   1.00800           0
      7999 MEMB     69       OSM      H3G      HAL2     0.900000E-01   1.00800           0
      8000 MEMB     69       OSM      C4F      CTL2    -0.180000       12.0110           0
      8001 MEMB     69       OSM      H4F      HAL2     0.900000E-01   1.00800           0
      8002 MEMB     69       OSM      H4G      HAL2     0.900000E-01   1.00800           0
      8003 MEMB     69       OSM      C5F      CTL2    -0.180000       12.0110           0
      8004 MEMB     69       OSM      H5F      HAL2     0.900000E-01   1.00800           0
      8005 MEMB     69       OSM      H5G      HAL2     0.900000E-01   1.00800           0
      8006 MEMB     69       OSM      C6F      CTL2    -0.180000       12.0110           0
      8007 MEMB     69       OSM      H6F      HAL2     0.900000E-01   1.00800           0
      8008 MEMB     69       OSM      H6G      HAL2     0.900000E-01   1.00800           0
      8009 MEMB     69       OSM      C7F      CTL2    -0.180000       12.0110           0
      8010 MEMB     69       OSM      H7F      HAL2     0.900000E-01   1.00800           0
      8011 MEMB     69       OSM      H7G      HAL2     0.900000E-01   1.00800           0
      8012 MEMB     69       OSM      C8F      CTL2    -0.180000       12.0110           0
      8013 MEMB     69       OSM      H8F      HAL2     0.900000E-01   1.00800           0
      8014 MEMB     69       OSM      H8G      HAL2     0.900000E-01   1.00800           0
      8015 MEMB     69       OSM      C9F      CEL1    -0.150000       12.0110           0
      8016 MEMB     69       OSM      H9F      HEL1     0.150000       1.00800           0
      8017 MEMB     69       OSM      C10F     CEL1    -0.150000       12.0110           0
      8018 MEMB     69       OSM      H10F     HEL1     0.150000       1.00800           0
      8019 MEMB     69       OSM      C11F     CTL2    -0.180000       12.0110           0
      8020 MEMB     69       OSM      H11F     HAL2     0.900000E-01   1.00800           0
      8021 MEMB     69       OSM      H11G     HAL2     0.900000E-01   1.00800           0
      8022 MEMB     69       OSM      C12F     CTL2    -0.180000       12.0110           0
      8023 MEMB     69       OSM      H12F     HAL2     0.900000E-01   1.00800           0
      8024 MEMB     69       OSM      H12G     HAL2     0.900000E-01   1.00800           0
      8025 MEMB     69       OSM      C13F     CTL2    -0.180000       12.0110           0
      8026 MEMB     69       OSM      H13F     HAL2     0.900000E-01   1.00800           0
      8027 MEMB     69       OSM      H13G     HAL2     0.900000E-01   1.00800           0
      8028 MEMB     69       OSM      C14F     CTL2    -0.180000       12.0110           0
      8029 MEMB     69       OSM      H14F     HAL2     0.900000E-01   1.00800           0
      8030 MEMB     69       OSM      H14G     HAL2     0.900000E-01   1.00800           0
      8031 MEMB     69       OSM      C15F     CTL2    -0.180000       12.0110           0
      8032 MEMB     69       OSM      H15F     HAL2     0.900000E-01   1.00800           0
      8033 MEMB     69       OSM      H15G     HAL2     0.900000E-01   1.00800           0
      8034 MEMB     69       OSM      C16F     CTL2    -0.180000       12.0110           0
      8035 MEMB     69       OSM      H16F     HAL2     0.900000E-01   1.00800           0
      8036 MEMB     69       OSM      H16G     HAL2     0.900000E-01   1.00800           0
      8037 MEMB     69       OSM      C17F     CTL2    -0.180000       12.0110           0
      8038 MEMB     69       OSM      H17F     HAL2     0.900000E-01   1.00800           0
      8039 MEMB     69       OSM      H17G     HAL2     0.900000E-01   1.00800           0
      8040 MEMB     69       OSM      C18F     CTL3    -0.270000       12.0110           0
      8041 MEMB     69       OSM      H18F     HAL3     0.900000E-01   1.00800           0
      8042 MEMB     69       OSM      H18G     HAL3     0.900000E-01   1.00800           0
      8043 MEMB     69       OSM      H18H     HAL3     0.900000E-01   1.00800           0
      8044 MEMB     70       SAPS     N        NH3L    -0.300000       14.0070           0
      8045 MEMB     70       SAPS     HN1      HCL      0.330000       1.00800           0
      8046 MEMB     70       SAPS     HN2      HCL      0.330000       1.00800           0
      8047 MEMB     70       SAPS     HN3      HCL      0.330000       1.00800           0
      8048 MEMB     70       SAPS     C12      CTL1     0.210000       12.0110           0
      8049 MEMB     70       SAPS     H12A     HBL      0.100000       1.00800           0
      8050 MEMB     70       SAPS     C13      CCL      0.340000       12.0110           0
      8051 MEMB     70       SAPS     O13A     OCL     -0.670000       15.9994           0
      8052 MEMB     70       SAPS     O13B     OCL     -0.670000       15.9994           0
      8053 MEMB     70       SAPS     C11      CTL2    -0.800000E-01   12.0110           0
      8054 MEMB     70       SAPS     H11A     HAL2     0.900000E-01   1.00800           0
      8055 MEMB     70       SAPS     H11B     HAL2     0.900000E-01   1.00800           0
      8056 MEMB     70       SAPS     P        PL        1.50000       30.9740           0
      8057 MEMB     70       SAPS     O13      O2L     -0.780000       15.9994           0
      8058 MEMB     70       SAPS     O14      O2L     -0.780000       15.9994           0
      8059 MEMB     70       SAPS     O12      OSLP    -0.570000       15.9994           0
      8060 MEMB     70       SAPS     O11      OSLP    -0.570000       15.9994           0
      8061 MEMB     70       SAPS     C1       CTL2    -0.800000E-01   12.0110           0
      8062 MEMB     70       SAPS     HA       HAL2     0.900000E-01   1.00800           0
      8063 MEMB     70       SAPS     HB       HAL2     0.900000E-01   1.00800           0
      8064 MEMB     70       SAPS     C2       CTL1     0.170000       12.0110           0
      8065 MEMB     70       SAPS     HS       HAL1     0.900000E-01   1.00800           0
      8066 MEMB     70       SAPS     O21      OSL     -0.490000       15.9994           0
      8067 MEMB     70       SAPS     C21      CL       0.900000       12.0110           0
      8068 MEMB     70       SAPS     O22      OBL     -0.630000       15.9994           0
      8069 MEMB     70       SAPS     C22      CTL2    -0.220000       12.0110           0
      8070 MEMB     70       SAPS     H2R      HAL2     0.900000E-01   1.00800           0
      8071 MEMB     70       SAPS     H2S      HAL2     0.900000E-01   1.00800           0
      8072 MEMB     70       SAPS     C3       CTL2     0.800000E-01   12.0110           0
      8073 MEMB     70       SAPS     HX       HAL2     0.900000E-01   1.00800           0
      8074 MEMB     70       SAPS     HY       HAL2     0.900000E-01   1.00800           0
      8075 MEMB     70       SAPS     O31      OSL     -0.490000       15.9994           0
      8076 MEMB     70       SAPS     C31      CL       0.900000       12.0110           0
      8077 MEMB     70       SAPS     O32      OBL     -0.630000       15.9994           0
      8078 MEMB     70       SAPS     C32      CTL2    -0.220000       12.0110           0
      8079 MEMB     70       SAPS     H2X      HAL2     0.900000E-01   1.00800           0
      8080 MEMB     70       SAPS     H2Y      HAL2     0.900000E-01   1.00800           0
      8081 MEMB     70       SAPS     C23      CTL2    -0.180000       12.0110           0
      8082 MEMB     70       SAPS     H3R      HAL2     0.900000E-01   1.00800           0
      8083 MEMB     70       SAPS     H3S      HAL2     0.900000E-01   1.00800           0
      8084 MEMB     70       SAPS     C24      CTL2    -0.180000       12.0110           0
      8085 MEMB     70       SAPS     H4R      HAL2     0.900000E-01   1.00800           0
      8086 MEMB     70       SAPS     H4S      HAL2     0.900000E-01   1.00800           0
      8087 MEMB     70       SAPS     C25      CEL1    -0.150000       12.0110           0
      8088 MEMB     70       SAPS     H5R      HEL1     0.150000       1.00800           0
      8089 MEMB     70       SAPS     C26      CEL1    -0.150000       12.0110           0
      8090 MEMB     70       SAPS     H6R      HEL1     0.150000       1.00800           0
      8091 MEMB     70       SAPS     C27      CTL2    -0.180000       12.0110           0
      8092 MEMB     70       SAPS     H7R      HAL2     0.900000E-01   1.00800           0
      8093 MEMB     70       SAPS     H7S      HAL2     0.900000E-01   1.00800           0
      8094 MEMB     70       SAPS     C28      CEL1    -0.150000       12.0110           0
      8095 MEMB     70       SAPS     H8R      HEL1     0.150000       1.00800           0
      8096 MEMB     70       SAPS     C29      CEL1    -0.150000       12.0110           0
      8097 MEMB     70       SAPS     H9R      HEL1     0.150000       1.00800           0
      8098 MEMB     70       SAPS     C210     CTL2    -0.180000       12.0110           0
      8099 MEMB     70       SAPS     H10R     HAL2     0.900000E-01   1.00800           0
      8100 MEMB     70       SAPS     H10S     HAL2     0.900000E-01   1.00800           0
      8101 MEMB     70       SAPS     C211     CEL1    -0.150000       12.0110           0
      8102 MEMB     70       SAPS     H11R     HEL1     0.150000       1.00800           0
      8103 MEMB     70       SAPS     C212     CEL1    -0.150000       12.0110           0
      8104 MEMB     70       SAPS     H12R     HEL1     0.150000       1.00800           0
      8105 MEMB     70       SAPS     C213     CTL2    -0.180000       12.0110           0
      8106 MEMB     70       SAPS     H13R     HAL2     0.900000E-01   1.00800           0
      8107 MEMB     70       SAPS     H13S     HAL2     0.900000E-01   1.00800           0
      8108 MEMB     70       SAPS     C214     CEL1    -0.150000       12.0110           0
      8109 MEMB     70       SAPS     H14R     HEL1     0.150000       1.00800           0
      8110 MEMB     70       SAPS     C215     CEL1    -0.150000       12.0110           0
      8111 MEMB     70       SAPS     H15R     HEL1     0.150000       1.00800           0
      8112 MEMB     70       SAPS     C216     CTL2    -0.180000       12.0110           0
      8113 MEMB     70       SAPS     H16R     HAL2     0.900000E-01   1.00800           0
      8114 MEMB     70       SAPS     H16S     HAL2     0.900000E-01   1.00800           0
      8115 MEMB     70       SAPS     C217     CTL2    -0.180000       12.0110           0
      8116 MEMB     70       SAPS     H17R     HAL2     0.900000E-01   1.00800           0
      8117 MEMB     70       SAPS     H17S     HAL2     0.900000E-01   1.00800           0
      8118 MEMB     70       SAPS     C218     CTL2    -0.180000       12.0110           0
      8119 MEMB     70       SAPS     H18R     HAL2     0.900000E-01   1.00800           0
      8120 MEMB     70       SAPS     H18S     HAL2     0.900000E-01   1.00800           0
      8121 MEMB     70       SAPS     C219     CTL2    -0.180000       12.0110           0
      8122 MEMB     70       SAPS     H19R     HAL2     0.900000E-01   1.00800           0
      8123 MEMB     70       SAPS     H19S     HAL2     0.900000E-01   1.00800           0
      8124 MEMB     70       SAPS     C220     CTL3    -0.270000       12.0110           0
      8125 MEMB     70       SAPS     H20R     HAL3     0.900000E-01   1.00800           0
      8126 MEMB     70       SAPS     H20S     HAL3     0.900000E-01   1.00800           0
      8127 MEMB     70       SAPS     H20T     HAL3     0.900000E-01   1.00800           0
      8128 MEMB     70       SAPS     C33      CTL2    -0.180000       12.0110           0
      8129 MEMB     70       SAPS     H3X      HAL2     0.900000E-01   1.00800           0
      8130 MEMB     70       SAPS     H3Y      HAL2     0.900000E-01   1.00800           0
      8131 MEMB     70       SAPS     C34      CTL2    -0.180000       12.0110           0
      8132 MEMB     70       SAPS     H4X      HAL2     0.900000E-01   1.00800           0
      8133 MEMB     70       SAPS     H4Y      HAL2     0.900000E-01   1.00800           0
      8134 MEMB     70       SAPS     C35      CTL2    -0.180000       12.0110           0
      8135 MEMB     70       SAPS     H5X      HAL2     0.900000E-01   1.00800           0
      8136 MEMB     70       SAPS     H5Y      HAL2     0.900000E-01   1.00800           0
      8137 MEMB     70       SAPS     C36      CTL2    -0.180000       12.0110           0
      8138 MEMB     70       SAPS     H6X      HAL2     0.900000E-01   1.00800           0
      8139 MEMB     70       SAPS     H6Y      HAL2     0.900000E-01   1.00800           0
      8140 MEMB     70       SAPS     C37      CTL2    -0.180000       12.0110           0
      8141 MEMB     70       SAPS     H7X      HAL2     0.900000E-01   1.00800           0
      8142 MEMB     70       SAPS     H7Y      HAL2     0.900000E-01   1.00800           0
      8143 MEMB     70       SAPS     C38      CTL2    -0.180000       12.0110           0
      8144 MEMB     70       SAPS     H8X      HAL2     0.900000E-01   1.00800           0
      8145 MEMB     70       SAPS     H8Y      HAL2     0.900000E-01   1.00800           0
      8146 MEMB     70       SAPS     C39      CTL2    -0.180000       12.0110           0
      8147 MEMB     70       SAPS     H9X      HAL2     0.900000E-01   1.00800           0
      8148 MEMB     70       SAPS     H9Y      HAL2     0.900000E-01   1.00800           0
      8149 MEMB     70       SAPS     C310     CTL2    -0.180000       12.0110           0
      8150 MEMB     70       SAPS     H10X     HAL2     0.900000E-01   1.00800           0
      8151 MEMB     70       SAPS     H10Y     HAL2     0.900000E-01   1.00800           0
      8152 MEMB     70       SAPS     C311     CTL2    -0.180000       12.0110           0
      8153 MEMB     70       SAPS     H11X     HAL2     0.900000E-01   1.00800           0
      8154 MEMB     70       SAPS     H11Y     HAL2     0.900000E-01   1.00800           0
      8155 MEMB     70       SAPS     C312     CTL2    -0.180000       12.0110           0
      8156 MEMB     70       SAPS     H12X     HAL2     0.900000E-01   1.00800           0
      8157 MEMB     70       SAPS     H12Y     HAL2     0.900000E-01   1.00800           0
      8158 MEMB     70       SAPS     C313     CTL2    -0.180000       12.0110           0
      8159 MEMB     70       SAPS     H13X     HAL2     0.900000E-01   1.00800           0
      8160 MEMB     70       SAPS     H13Y     HAL2     0.900000E-01   1.00800           0
      8161 MEMB     70       SAPS     C314     CTL2    -0.180000       12.0110           0
      8162 MEMB     70       SAPS     H14X     HAL2     0.900000E-01   1.00800           0
      8163 MEMB     70       SAPS     H14Y     HAL2     0.900000E-01   1.00800           0
      8164 MEMB     70       SAPS     C315     CTL2    -0.180000       12.0110           0
      8165 MEMB     70       SAPS     H15X     HAL2     0.900000E-01   1.00800           0
      8166 MEMB     70       SAPS     H15Y     HAL2     0.900000E-01   1.00800           0
      8167 MEMB     70       SAPS     C316     CTL2    -0.180000       12.0110           0
      8168 MEMB     70       SAPS     H16X     HAL2     0.900000E-01   1.00800           0
      8169 MEMB     70       SAPS     H16Y     HAL2     0.900000E-01   1.00800           0
      8170 MEMB     70       SAPS     C317     CTL2    -0.180000       12.0110           0
      8171 MEMB     70       SAPS     H17X     HAL2     0.900000E-01   1.00800           0
      8172 MEMB     70       SAPS     H17Y     HAL2     0.900000E-01   1.00800           0
      8173 MEMB     70       SAPS     C318     CTL3    -0.270000       12.0110           0
      8174 MEMB     70       SAPS     H18X     HAL3     0.900000E-01   1.00800           0
      8175 MEMB     70       SAPS     H18Y     HAL3     0.900000E-01   1.00800           0
      8176 MEMB     70       SAPS     H18Z     HAL3     0.900000E-01   1.00800           0
      8177 MEMB     71       OSM      N        NTL     -0.600000       14.0070           0
      8178 MEMB     71       OSM      C15      CTL5    -0.350000       12.0110           0
      8179 MEMB     71       OSM      H15A     HL       0.250000       1.00800           0
      8180 MEMB     71       OSM      H15B     HL       0.250000       1.00800           0
      8181 MEMB     71       OSM      H15C     HL       0.250000       1.00800           0
      8182 MEMB     71       OSM      C14      CTL5    -0.350000       12.0110           0
      8183 MEMB     71       OSM      H14A     HL       0.250000       1.00800           0
      8184 MEMB     71       OSM      H14B     HL       0.250000       1.00800           0
      8185 MEMB     71       OSM      H14C     HL       0.250000       1.00800           0
      8186 MEMB     71       OSM      C13      CTL5    -0.350000       12.0110           0
      8187 MEMB     71       OSM      H13A     HL       0.250000       1.00800           0
      8188 MEMB     71       OSM      H13B     HL       0.250000       1.00800           0
      8189 MEMB     71       OSM      H13C     HL       0.250000       1.00800           0
      8190 MEMB     71       OSM      C12      CTL2    -0.100000       12.0110           0
      8191 MEMB     71       OSM      H12A     HL       0.250000       1.00800           0
      8192 MEMB     71       OSM      H12B     HL       0.250000       1.00800           0
      8193 MEMB     71       OSM      C11      CTL2    -0.800000E-01   12.0110           0
      8194 MEMB     71       OSM      H11A     HAL2     0.900000E-01   1.00800           0
      8195 MEMB     71       OSM      H11B     HAL2     0.900000E-01   1.00800           0
      8196 MEMB     71       OSM      P        PL        1.50000       30.9740           0
      8197 MEMB     71       OSM      O13      O2L     -0.780000       15.9994           0
      8198 MEMB     71       OSM      O14      O2L     -0.780000       15.9994           0
      8199 MEMB     71       OSM      O11      OSLP    -0.570000       15.9994           0
      8200 MEMB     71       OSM      O12      OSLP    -0.570000       15.9994           0
      8201 MEMB     71       OSM      C1S      CTL2    -0.800000E-01   12.0110           0
      8202 MEMB     71       OSM      H1S      HAL2     0.900000E-01   1.00800           0
      8203 MEMB     71       OSM      H1T      HAL2     0.900000E-01   1.00800           0
      8204 MEMB     71       OSM      NF       NHL     -0.700000       14.0070           0
      8205 MEMB     71       OSM      HNF      H        0.350000       1.00800           0
      8206 MEMB     71       OSM      C2S      CTL1     0.300000       12.0110           0
      8207 MEMB     71       OSM      H2S      HAL1     0.500000E-01   1.00800           0
      8208 MEMB     71       OSM      C3S      CTO1     0.500000       12.0110           0
      8209 MEMB     71       OSM      H3S      HAL1    -0.110000       1.00800           0
      8210 MEMB     71       OSM      O3       OHL     -0.690000       15.9994           0
      8211 MEMB     71       OSM      HO3      HOL      0.300000       1.00800           0
      8212 MEMB     71       OSM      C4S      CEL3    -0.150000       12.0110           0
      8213 MEMB     71       OSM      H4S      HEL1     0.150000       1.00800           0
      8214 MEMB     71       OSM      C5S      CEL3    -0.150000       12.0110           0
      8215 MEMB     71       OSM      H5S      HEL1     0.150000       1.00800           0
      8216 MEMB     71       OSM      C6S      CTL2    -0.180000       12.0110           0
      8217 MEMB     71       OSM      H6S      HAL2     0.900000E-01   1.00800           0
      8218 MEMB     71       OSM      H6T      HAL2     0.900000E-01   1.00800           0
      8219 MEMB     71       OSM      C7S      CTL2    -0.180000       12.0110           0
      8220 MEMB     71       OSM      H7S      HAL2     0.900000E-01   1.00800           0
      8221 MEMB     71       OSM      H7T      HAL2     0.900000E-01   1.00800           0
      8222 MEMB     71       OSM      C8S      CTL2    -0.180000       12.0110           0
      8223 MEMB     71       OSM      H8S      HAL2     0.900000E-01   1.00800           0
      8224 MEMB     71       OSM      H8T      HAL2     0.900000E-01   1.00800           0
      8225 MEMB     71       OSM      C9S      CTL2    -0.180000       12.0110           0
      8226 MEMB     71       OSM      H9S      HAL2     0.900000E-01   1.00800           0
      8227 MEMB     71       OSM      H9T      HAL2     0.900000E-01   1.00800           0
      8228 MEMB     71       OSM      C10S     CTL2    -0.180000       12.0110           0
      8229 MEMB     71       OSM      H10S     HAL2     0.900000E-01   1.00800           0
      8230 MEMB     71       OSM      H10T     HAL2     0.900000E-01   1.00800           0
      8231 MEMB     71       OSM      C11S     CTL2    -0.180000       12.0110           0
      8232 MEMB     71       OSM      H11S     HAL2     0.900000E-01   1.00800           0
      8233 MEMB     71       OSM      H11T     HAL2     0.900000E-01   1.00800           0
      8234 MEMB     71       OSM      C12S     CTL2    -0.180000       12.0110           0
      8235 MEMB     71       OSM      H12S     HAL2     0.900000E-01   1.00800           0
      8236 MEMB     71       OSM      H12T     HAL2     0.900000E-01   1.00800           0
      8237 MEMB     71       OSM      C13S     CTL2    -0.180000       12.0110           0
      8238 MEMB     71       OSM      H13S     HAL2     0.900000E-01   1.00800           0
      8239 MEMB     71       OSM      H13T     HAL2     0.900000E-01   1.00800           0
      8240 MEMB     71       OSM      C14S     CTL2    -0.180000       12.0110           0
      8241 MEMB     71       OSM      H14S     HAL2     0.900000E-01   1.00800           0
      8242 MEMB     71       OSM      H14T     HAL2     0.900000E-01   1.00800           0
      8243 MEMB     71       OSM      C15S     CTL2    -0.180000       12.0110           0
      8244 MEMB     71       OSM      H15S     HAL2     0.900000E-01   1.00800           0
      8245 MEMB     71       OSM      H15T     HAL2     0.900000E-01   1.00800           0
      8246 MEMB     71       OSM      C16S     CTL2    -0.180000       12.0110           0
      8247 MEMB     71       OSM      H16S     HAL2     0.900000E-01   1.00800           0
      8248 MEMB     71       OSM      H16T     HAL2     0.900000E-01   1.00800           0
      8249 MEMB     71       OSM      C17S     CTL2    -0.180000       12.0110           0
      8250 MEMB     71       OSM      H17S     HAL2     0.900000E-01   1.00800           0
      8251 MEMB     71       OSM      H17T     HAL2     0.900000E-01   1.00800           0
      8252 MEMB     71       OSM      C18S     CTL3    -0.270000       12.0110           0
      8253 MEMB     71       OSM      H18S     HAL3     0.900000E-01   1.00800           0
      8254 MEMB     71       OSM      H18T     HAL3     0.900000E-01   1.00800           0
      8255 MEMB     71       OSM      H18U     HAL3     0.900000E-01   1.00800           0
      8256 MEMB     71       OSM      C1F      C        0.550000       12.0110           0
      8257 MEMB     71       OSM      OF       O       -0.600000       15.9994           0
      8258 MEMB     71       OSM      C2F      CTL2    -0.700000E-01   12.0110           0
      8259 MEMB     71       OSM      H2F      HAL2     0.600000E-01   1.00800           0
      8260 MEMB     71       OSM      H2G      HAL2     0.600000E-01   1.00800           0
      8261 MEMB     71       OSM      C3F      CTL2    -0.180000       12.0110           0
      8262 MEMB     71       OSM      H3F      HAL2     0.900000E-01   1.00800           0
      8263 MEMB     71       OSM      H3G      HAL2     0.900000E-01   1.00800           0
      8264 MEMB     71       OSM      C4F      CTL2    -0.180000       12.0110           0
      8265 MEMB     71       OSM      H4F      HAL2     0.900000E-01   1.00800           0
      8266 MEMB     71       OSM      H4G      HAL2     0.900000E-01   1.00800           0
      8267 MEMB     71       OSM      C5F      CTL2    -0.180000       12.0110           0
      8268 MEMB     71       OSM      H5F      HAL2     0.900000E-01   1.00800           0
      8269 MEMB     71       OSM      H5G      HAL2     0.900000E-01   1.00800           0
      8270 MEMB     71       OSM      C6F      CTL2    -0.180000       12.0110           0
      8271 MEMB     71       OSM      H6F      HAL2     0.900000E-01   1.00800           0
      8272 MEMB     71       OSM      H6G      HAL2     0.900000E-01   1.00800           0
      8273 MEMB     71       OSM      C7F      CTL2    -0.180000       12.0110           0
      8274 MEMB     71       OSM      H7F      HAL2     0.900000E-01   1.00800           0
      8275 MEMB     71       OSM      H7G      HAL2     0.900000E-01   1.00800           0
      8276 MEMB     71       OSM      C8F      CTL2    -0.180000       12.0110           0
      8277 MEMB     71       OSM      H8F      HAL2     0.900000E-01   1.00800           0
      8278 MEMB     71       OSM      H8G      HAL2     0.900000E-01   1.00800           0
      8279 MEMB     71       OSM      C9F      CEL1    -0.150000       12.0110           0
      8280 MEMB     71       OSM      H9F      HEL1     0.150000       1.00800           0
      8281 MEMB     71       OSM      C10F     CEL1    -0.150000       12.0110           0
      8282 MEMB     71       OSM      H10F     HEL1     0.150000       1.00800           0
      8283 MEMB     71       OSM      C11F     CTL2    -0.180000       12.0110           0
      8284 MEMB     71       OSM      H11F     HAL2     0.900000E-01   1.00800           0
      8285 MEMB     71       OSM      H11G     HAL2     0.900000E-01   1.00800           0
      8286 MEMB     71       OSM      C12F     CTL2    -0.180000       12.0110           0
      8287 MEMB     71       OSM      H12F     HAL2     0.900000E-01   1.00800           0
      8288 MEMB     71       OSM      H12G     HAL2     0.900000E-01   1.00800           0
      8289 MEMB     71       OSM      C13F     CTL2    -0.180000       12.0110           0
      8290 MEMB     71       OSM      H13F     HAL2     0.900000E-01   1.00800           0
      8291 MEMB     71       OSM      H13G     HAL2     0.900000E-01   1.00800           0
      8292 MEMB     71       OSM      C14F     CTL2    -0.180000       12.0110           0
      8293 MEMB     71       OSM      H14F     HAL2     0.900000E-01   1.00800           0
      8294 MEMB     71       OSM      H14G     HAL2     0.900000E-01   1.00800           0
      8295 MEMB     71       OSM      C15F     CTL2    -0.180000       12.0110           0
      8296 MEMB     71       OSM      H15F     HAL2     0.900000E-01   1.00800           0
      8297 MEMB     71       OSM      H15G     HAL2     0.900000E-01   1.00800           0
      8298 MEMB     71       OSM      C16F     CTL2    -0.180000       12.0110           0
      8299 MEMB     71       OSM      H16F     HAL2     0.900000E-01   1.00800           0
      8300 MEMB     71       OSM      H16G     HAL2     0.900000E-01   1.00800           0
      8301 MEMB     71       OSM      C17F     CTL2    -0.180000       12.0110           0
      8302 MEMB     71       OSM      H17F     HAL2     0.900000E-01   1.00800           0
      8303 MEMB     71       OSM      H17G     HAL2     0.900000E-01   1.00800           0
      8304 MEMB     71       OSM      C18F     CTL3    -0.270000       12.0110           0
      8305 MEMB     71       OSM      H18F     HAL3     0.900000E-01   1.00800           0
      8306 MEMB     71       OSM      H18G     HAL3     0.900000E-01   1.00800           0
      8307 MEMB     71       OSM      H18H     HAL3     0.900000E-01   1.00800           0
      8308 MEMB     72       CHL1     C3       CRL1     0.140000       12.0110           0
      8309 MEMB     72       CHL1     H3       HGA1     0.900000E-01   1.00800           0
      8310 MEMB     72       CHL1     O3       OHL     -0.660000       15.9994           0
      8311 MEMB     72       CHL1     H3'      HOL      0.430000       1.00800           0
      8312 MEMB     72       CHL1     C4       CRL2    -0.180000       12.0110           0
      8313 MEMB     72       CHL1     H4A      HGA2     0.900000E-01   1.00800           0
      8314 MEMB     72       CHL1     H4B      HGA2     0.900000E-01   1.00800           0
      8315 MEMB     72       CHL1     C5       CEL1      0.00000       12.0110           0
      8316 MEMB     72       CHL1     C6       CEL1    -0.150000       12.0110           0
      8317 MEMB     72       CHL1     H6       HEL1     0.150000       1.00800           0
      8318 MEMB     72       CHL1     C7       CRL2    -0.180000       12.0110           0
      8319 MEMB     72       CHL1     H7A      HGA2     0.900000E-01   1.00800           0
      8320 MEMB     72       CHL1     H7B      HGA2     0.900000E-01   1.00800           0
      8321 MEMB     72       CHL1     C8       CRL1    -0.900000E-01   12.0110           0
      8322 MEMB     72       CHL1     H8       HGA1     0.900000E-01   1.00800           0
      8323 MEMB     72       CHL1     C14      CRL1    -0.900000E-01   12.0110           0
      8324 MEMB     72       CHL1     H14      HGA1     0.900000E-01   1.00800           0
      8325 MEMB     72       CHL1     C15      CRL2    -0.180000       12.0110           0
      8326 MEMB     72       CHL1     H15A     HGA2     0.900000E-01   1.00800           0
      8327 MEMB     72       CHL1     H15B     HGA2     0.900000E-01   1.00800           0
      8328 MEMB     72       CHL1     C16      CRL2    -0.180000       12.0110           0
      8329 MEMB     72       CHL1     H16A     HGA2     0.900000E-01   1.00800           0
      8330 MEMB     72       CHL1     H16B     HGA2     0.900000E-01   1.00800           0
      8331 MEMB     72       CHL1     C17      CRL1    -0.900000E-01   12.0110           0
      8332 MEMB     72       CHL1     H17      HGA1     0.900000E-01   1.00800           0
      8333 MEMB     72       CHL1     C13      CRL1      0.00000       12.0110           0
      8334 MEMB     72       CHL1     C18      CTL3    -0.270000       12.0110           0
      8335 MEMB     72       CHL1     H18A     HAL3     0.900000E-01   1.00800           0
      8336 MEMB     72       CHL1     H18B     HAL3     0.900000E-01   1.00800           0
      8337 MEMB     72       CHL1     H18C     HAL3     0.900000E-01   1.00800           0
      8338 MEMB     72       CHL1     C12      CRL2    -0.180000       12.0110           0
      8339 MEMB     72       CHL1     H12A     HGA2     0.900000E-01   1.00800           0
      8340 MEMB     72       CHL1     H12B     HGA2     0.900000E-01   1.00800           0
      8341 MEMB     72       CHL1     C11      CRL2    -0.180000       12.0110           0
      8342 MEMB     72       CHL1     H11A     HGA2     0.900000E-01   1.00800           0
      8343 MEMB     72       CHL1     H11B     HGA2     0.900000E-01   1.00800           0
      8344 MEMB     72       CHL1     C9       CRL1    -0.900000E-01   12.0110           0
      8345 MEMB     72       CHL1     H9       HGA1     0.900000E-01   1.00800           0
      8346 MEMB     72       CHL1     C10      CRL1      0.00000       12.0110           0
      8347 MEMB     72       CHL1     C19      CTL3    -0.270000       12.0110           0
      8348 MEMB     72       CHL1     H19A     HAL3     0.900000E-01   1.00800           0
      8349 MEMB     72       CHL1     H19B     HAL3     0.900000E-01   1.00800           0
      8350 MEMB     72       CHL1     H19C     HAL3     0.900000E-01   1.00800           0
      8351 MEMB     72       CHL1     C1       CRL2    -0.180000       12.0110           0
      8352 MEMB     72       CHL1     H1A      HGA2     0.900000E-01   1.00800           0
      8353 MEMB     72       CHL1     H1B      HGA2     0.900000E-01   1.00800           0
      8354 MEMB     72       CHL1     C2       CRL2    -0.180000       12.0110           0
      8355 MEMB     72       CHL1     H2A      HGA2     0.900000E-01   1.00800           0
      8356 MEMB     72       CHL1     H2B      HGA2     0.900000E-01   1.00800           0
      8357 MEMB     72       CHL1     C20      CTL1    -0.900000E-01   12.0110           0
      8358 MEMB     72       CHL1     H20      HAL1     0.900000E-01   1.00800           0
      8359 MEMB     72       CHL1     C21      CTL3    -0.270000       12.0110           0
      8360 MEMB     72       CHL1     H21A     HAL3     0.900000E-01   1.00800           0
      8361 MEMB     72       CHL1     H21B     HAL3     0.900000E-01   1.00800           0
      8362 MEMB     72       CHL1     H21C     HAL3     0.900000E-01   1.00800           0
      8363 MEMB     72       CHL1     C22      CTL2    -0.180000       12.0110           0
      8364 MEMB     72       CHL1     H22A     HAL2     0.900000E-01   1.00800           0
      8365 MEMB     72       CHL1     H22B     HAL2     0.900000E-01   1.00800           0
      8366 MEMB     72       CHL1     C23      CTL2    -0.180000       12.0110           0
      8367 MEMB     72       CHL1     H23A     HAL2     0.900000E-01   1.00800           0
      8368 MEMB     72       CHL1     H23B     HAL2     0.900000E-01   1.00800           0
      8369 MEMB     72       CHL1     C24      CTL2    -0.180000       12.0110           0
      8370 MEMB     72       CHL1     H24A     HAL2     0.900000E-01   1.00800           0
      8371 MEMB     72       CHL1     H24B     HAL2     0.900000E-01   1.00800           0
      8372 MEMB     72       CHL1     C25      CTL1    -0.900000E-01   12.0110           0
      8373 MEMB     72       CHL1     H25      HAL1     0.900000E-01   1.00800           0
      8374 MEMB     72       CHL1     C26      CTL3    -0.270000       12.0110           0
      8375 MEMB     72       CHL1     H26A     HAL3     0.900000E-01   1.00800           0
      8376 MEMB     72       CHL1     H26B     HAL3     0.900000E-01   1.00800           0
      8377 MEMB     72       CHL1     H26C     HAL3     0.900000E-01   1.00800           0
      8378 MEMB     72       CHL1     C27      CTL3    -0.270000       12.0110           0
      8379 MEMB     72       CHL1     H27A     HAL3     0.900000E-01   1.00800           0
      8380 MEMB     72       CHL1     H27B     HAL3     0.900000E-01   1.00800           0
      8381 MEMB     72       CHL1     H27C     HAL3     0.900000E-01   1.00800           0
      8382 MEMB     73       SAPC     N        NTL     -0.600000       14.0070           0
      8383 MEMB     73       SAPC     C12      CTL2    -0.100000       12.0110           0
      8384 MEMB     73       SAPC     H12A     HL       0.250000       1.00800           0
      8385 MEMB     73       SAPC     H12B     HL       0.250000       1.00800           0
      8386 MEMB     73       SAPC     C13      CTL5    -0.350000       12.0110           0
      8387 MEMB     73       SAPC     H13A     HL       0.250000       1.00800           0
      8388 MEMB     73       SAPC     H13B     HL       0.250000       1.00800           0
      8389 MEMB     73       SAPC     H13C     HL       0.250000       1.00800           0
      8390 MEMB     73       SAPC     C14      CTL5    -0.350000       12.0110           0
      8391 MEMB     73       SAPC     H14A     HL       0.250000       1.00800           0
      8392 MEMB     73       SAPC     H14B     HL       0.250000       1.00800           0
      8393 MEMB     73       SAPC     H14C     HL       0.250000       1.00800           0
      8394 MEMB     73       SAPC     C15      CTL5    -0.350000       12.0110           0
      8395 MEMB     73       SAPC     H15A     HL       0.250000       1.00800           0
      8396 MEMB     73       SAPC     H15B     HL       0.250000       1.00800           0
      8397 MEMB     73       SAPC     H15C     HL       0.250000       1.00800           0
      8398 MEMB     73       SAPC     C11      CTL2    -0.800000E-01   12.0110           0
      8399 MEMB     73       SAPC     H11A     HAL2     0.900000E-01   1.00800           0
      8400 MEMB     73       SAPC     H11B     HAL2     0.900000E-01   1.00800           0
      8401 MEMB     73       SAPC     P        PL        1.50000       30.9740           0
      8402 MEMB     73       SAPC     O13      O2L     -0.780000       15.9994           0
      8403 MEMB     73       SAPC     O14      O2L     -0.780000       15.9994           0
      8404 MEMB     73       SAPC     O12      OSLP    -0.570000       15.9994           0
      8405 MEMB     73       SAPC     O11      OSLP    -0.570000       15.9994           0
      8406 MEMB     73       SAPC     C1       CTL2    -0.800000E-01   12.0110           0
      8407 MEMB     73       SAPC     HA       HAL2     0.900000E-01   1.00800           0
      8408 MEMB     73       SAPC     HB       HAL2     0.900000E-01   1.00800           0
      8409 MEMB     73       SAPC     C2       CTL1     0.170000       12.0110           0
      8410 MEMB     73       SAPC     HS       HAL1     0.900000E-01   1.00800           0
      8411 MEMB     73       SAPC     O21      OSL     -0.490000       15.9994           0
      8412 MEMB     73       SAPC     C21      CL       0.900000       12.0110           0
      8413 MEMB     73       SAPC     O22      OBL     -0.630000       15.9994           0
      8414 MEMB     73       SAPC     C22      CTL2    -0.220000       12.0110           0
      8415 MEMB     73       SAPC     H2R      HAL2     0.900000E-01   1.00800           0
      8416 MEMB     73       SAPC     H2S      HAL2     0.900000E-01   1.00800           0
      8417 MEMB     73       SAPC     C3       CTL2     0.800000E-01   12.0110           0
      8418 MEMB     73       SAPC     HX       HAL2     0.900000E-01   1.00800           0
      8419 MEMB     73       SAPC     HY       HAL2     0.900000E-01   1.00800           0
      8420 MEMB     73       SAPC     O31      OSL     -0.490000       15.9994           0
      8421 MEMB     73       SAPC     C31      CL       0.900000       12.0110           0
      8422 MEMB     73       SAPC     O32      OBL     -0.630000       15.9994           0
      8423 MEMB     73       SAPC     C32      CTL2    -0.220000       12.0110           0
      8424 MEMB     73       SAPC     H2X      HAL2     0.900000E-01   1.00800           0
      8425 MEMB     73       SAPC     H2Y      HAL2     0.900000E-01   1.00800           0
      8426 MEMB     73       SAPC     C23      CTL2    -0.180000       12.0110           0
      8427 MEMB     73       SAPC     H3R      HAL2     0.900000E-01   1.00800           0
      8428 MEMB     73       SAPC     H3S      HAL2     0.900000E-01   1.00800           0
      8429 MEMB     73       SAPC     C24      CTL2    -0.180000       12.0110           0
      8430 MEMB     73       SAPC     H4R      HAL2     0.900000E-01   1.00800           0
      8431 MEMB     73       SAPC     H4S      HAL2     0.900000E-01   1.00800           0
      8432 MEMB     73       SAPC     C25      CEL1    -0.150000       12.0110           0
      8433 MEMB     73       SAPC     H5R      HEL1     0.150000       1.00800           0
      8434 MEMB     73       SAPC     C26      CEL1    -0.150000       12.0110           0
      8435 MEMB     73       SAPC     H6R      HEL1     0.150000       1.00800           0
      8436 MEMB     73       SAPC     C27      CTL2    -0.180000       12.0110           0
      8437 MEMB     73       SAPC     H7R      HAL2     0.900000E-01   1.00800           0
      8438 MEMB     73       SAPC     H7S      HAL2     0.900000E-01   1.00800           0
      8439 MEMB     73       SAPC     C28      CEL1    -0.150000       12.0110           0
      8440 MEMB     73       SAPC     H8R      HEL1     0.150000       1.00800           0
      8441 MEMB     73       SAPC     C29      CEL1    -0.150000       12.0110           0
      8442 MEMB     73       SAPC     H9R      HEL1     0.150000       1.00800           0
      8443 MEMB     73       SAPC     C210     CTL2    -0.180000       12.0110           0
      8444 MEMB     73       SAPC     H10R     HAL2     0.900000E-01   1.00800           0
      8445 MEMB     73       SAPC     H10S     HAL2     0.900000E-01   1.00800           0
      8446 MEMB     73       SAPC     C211     CEL1    -0.150000       12.0110           0
      8447 MEMB     73       SAPC     H11R     HEL1     0.150000       1.00800           0
      8448 MEMB     73       SAPC     C212     CEL1    -0.150000       12.0110           0
      8449 MEMB     73       SAPC     H12R     HEL1     0.150000       1.00800           0
      8450 MEMB     73       SAPC     C213     CTL2    -0.180000       12.0110           0
      8451 MEMB     73       SAPC     H13R     HAL2     0.900000E-01   1.00800           0
      8452 MEMB     73       SAPC     H13S     HAL2     0.900000E-01   1.00800           0
      8453 MEMB     73       SAPC     C214     CEL1    -0.150000       12.0110           0
      8454 MEMB     73       SAPC     H14R     HEL1     0.150000       1.00800           0
      8455 MEMB     73       SAPC     C215     CEL1    -0.150000       12.0110           0
      8456 MEMB     73       SAPC     H15R     HEL1     0.150000       1.00800           0
      8457 MEMB     73       SAPC     C216     CTL2    -0.180000       12.0110           0
      8458 MEMB     73       SAPC     H16R     HAL2     0.900000E-01   1.00800           0
      8459 MEMB     73       SAPC     H16S     HAL2     0.900000E-01   1.00800           0
      8460 MEMB     73       SAPC     C217     CTL2    -0.180000       12.0110           0
      8461 MEMB     73       SAPC     H17R     HAL2     0.900000E-01   1.00800           0
      8462 MEMB     73       SAPC     H17S     HAL2     0.900000E-01   1.00800           0
      8463 MEMB     73       SAPC     C218     CTL2    -0.270000       12.0110           0
      8464 MEMB     73       SAPC     H18R     HAL2     0.900000E-01   1.00800           0
      8465 MEMB     73       SAPC     H18S     HAL2     0.900000E-01   1.00800           0
      8466 MEMB     73       SAPC     C219     CTL2    -0.180000       12.0110           0
      8467 MEMB     73       SAPC     H19R     HAL2     0.900000E-01   1.00800           0
      8468 MEMB     73       SAPC     H19S     HAL2     0.900000E-01   1.00800           0
      8469 MEMB     73       SAPC     C220     CTL3    -0.180000       12.0110           0
      8470 MEMB     73       SAPC     H20R     HAL3     0.900000E-01   1.00800           0
      8471 MEMB     73       SAPC     H20S     HAL3     0.900000E-01   1.00800           0
      8472 MEMB     73       SAPC     H20T     HAL3     0.900000E-01   1.00800           0
      8473 MEMB     73       SAPC     C33      CTL2    -0.180000       12.0110           0
      8474 MEMB     73       SAPC     H3X      HAL2     0.900000E-01   1.00800           0
      8475 MEMB     73       SAPC     H3Y      HAL2     0.900000E-01   1.00800           0
      8476 MEMB     73       SAPC     C34      CTL2    -0.180000       12.0110           0
      8477 MEMB     73       SAPC     H4X      HAL2     0.900000E-01   1.00800           0
      8478 MEMB     73       SAPC     H4Y      HAL2     0.900000E-01   1.00800           0
      8479 MEMB     73       SAPC     C35      CTL2    -0.180000       12.0110           0
      8480 MEMB     73       SAPC     H5X      HAL2     0.900000E-01   1.00800           0
      8481 MEMB     73       SAPC     H5Y      HAL2     0.900000E-01   1.00800           0
      8482 MEMB     73       SAPC     C36      CTL2    -0.180000       12.0110           0
      8483 MEMB     73       SAPC     H6X      HAL2     0.900000E-01   1.00800           0
      8484 MEMB     73       SAPC     H6Y      HAL2     0.900000E-01   1.00800           0
      8485 MEMB     73       SAPC     C37      CTL2    -0.180000       12.0110           0
      8486 MEMB     73       SAPC     H7X      HAL2     0.900000E-01   1.00800           0
      8487 MEMB     73       SAPC     H7Y      HAL2     0.900000E-01   1.00800           0
      8488 MEMB     73       SAPC     C38      CTL2    -0.180000       12.0110           0
      8489 MEMB     73       SAPC     H8X      HAL2     0.900000E-01   1.00800           0
      8490 MEMB     73       SAPC     H8Y      HAL2     0.900000E-01   1.00800           0
      8491 MEMB     73       SAPC     C39      CTL2    -0.180000       12.0110           0
      8492 MEMB     73       SAPC     H9X      HAL2     0.900000E-01   1.00800           0
      8493 MEMB     73       SAPC     H9Y      HAL2     0.900000E-01   1.00800           0
      8494 MEMB     73       SAPC     C310     CTL2    -0.180000       12.0110           0
      8495 MEMB     73       SAPC     H10X     HAL2     0.900000E-01   1.00800           0
      8496 MEMB     73       SAPC     H10Y     HAL2     0.900000E-01   1.00800           0
      8497 MEMB     73       SAPC     C311     CTL2    -0.180000       12.0110           0
      8498 MEMB     73       SAPC     H11X     HAL2     0.900000E-01   1.00800           0
      8499 MEMB     73       SAPC     H11Y     HAL2     0.900000E-01   1.00800           0
      8500 MEMB     73       SAPC     C312     CTL2    -0.180000       12.0110           0
      8501 MEMB     73       SAPC     H12X     HAL2     0.900000E-01   1.00800           0
      8502 MEMB     73       SAPC     H12Y     HAL2     0.900000E-01   1.00800           0
      8503 MEMB     73       SAPC     C313     CTL2    -0.180000       12.0110           0
      8504 MEMB     73       SAPC     H13X     HAL2     0.900000E-01   1.00800           0
      8505 MEMB     73       SAPC     H13Y     HAL2     0.900000E-01   1.00800           0
      8506 MEMB     73       SAPC     C314     CTL2    -0.180000       12.0110           0
      8507 MEMB     73       SAPC     H14X     HAL2     0.900000E-01   1.00800           0
      8508 MEMB     73       SAPC     H14Y     HAL2     0.900000E-01   1.00800           0
      8509 MEMB     73       SAPC     C315     CTL2    -0.180000       12.0110           0
      8510 MEMB     73       SAPC     H15X     HAL2     0.900000E-01   1.00800           0
      8511 MEMB     73       SAPC     H15Y     HAL2     0.900000E-01   1.00800           0
      8512 MEMB     73       SAPC     C316     CTL2    -0.180000       12.0110           0
      8513 MEMB     73       SAPC     H16X     HAL2     0.900000E-01   1.00800           0
      8514 MEMB     73       SAPC     H16Y     HAL2     0.900000E-01   1.00800           0
      8515 MEMB     73       SAPC     C317     CTL2    -0.180000       12.0110           0
      8516 MEMB     73       SAPC     H17X     HAL2     0.900000E-01   1.00800           0
      8517 MEMB     73       SAPC     H17Y     HAL2     0.900000E-01   1.00800           0
      8518 MEMB     73       SAPC     C318     CTL3    -0.270000       12.0110           0
      8519 MEMB     73       SAPC     H18X     HAL3     0.900000E-01   1.00800           0
      8520 MEMB     73       SAPC     H18Y     HAL3     0.900000E-01   1.00800           0
      8521 MEMB     73       SAPC     H18Z     HAL3     0.900000E-01   1.00800           0
      8522 MEMB     74       CHL1     C3       CRL1     0.140000       12.0110           0
      8523 MEMB     74       CHL1     H3       HGA1     0.900000E-01   1.00800           0
      8524 MEMB     74       CHL1     O3       OHL     -0.660000       15.9994           0
      8525 MEMB     74       CHL1     H3'      HOL      0.430000       1.00800           0
      8526 MEMB     74       CHL1     C4       CRL2    -0.180000       12.0110           0
      8527 MEMB     74       CHL1     H4A      HGA2     0.900000E-01   1.00800           0
      8528 MEMB     74       CHL1     H4B      HGA2     0.900000E-01   1.00800           0
      8529 MEMB     74       CHL1     C5       CEL1      0.00000       12.0110           0
      8530 MEMB     74       CHL1     C6       CEL1    -0.150000       12.0110           0
      8531 MEMB     74       CHL1     H6       HEL1     0.150000       1.00800           0
      8532 MEMB     74       CHL1     C7       CRL2    -0.180000       12.0110           0
      8533 MEMB     74       CHL1     H7A      HGA2     0.900000E-01   1.00800           0
      8534 MEMB     74       CHL1     H7B      HGA2     0.900000E-01   1.00800           0
      8535 MEMB     74       CHL1     C8       CRL1    -0.900000E-01   12.0110           0
      8536 MEMB     74       CHL1     H8       HGA1     0.900000E-01   1.00800           0
      8537 MEMB     74       CHL1     C14      CRL1    -0.900000E-01   12.0110           0
      8538 MEMB     74       CHL1     H14      HGA1     0.900000E-01   1.00800           0
      8539 MEMB     74       CHL1     C15      CRL2    -0.180000       12.0110           0
      8540 MEMB     74       CHL1     H15A     HGA2     0.900000E-01   1.00800           0
      8541 MEMB     74       CHL1     H15B     HGA2     0.900000E-01   1.00800           0
      8542 MEMB     74       CHL1     C16      CRL2    -0.180000       12.0110           0
      8543 MEMB     74       CHL1     H16A     HGA2     0.900000E-01   1.00800           0
      8544 MEMB     74       CHL1     H16B     HGA2     0.900000E-01   1.00800           0
      8545 MEMB     74       CHL1     C17      CRL1    -0.900000E-01   12.0110           0
      8546 MEMB     74       CHL1     H17      HGA1     0.900000E-01   1.00800           0
      8547 MEMB     74       CHL1     C13      CRL1      0.00000       12.0110           0
      8548 MEMB     74       CHL1     C18      CTL3    -0.270000       12.0110           0
      8549 MEMB     74       CHL1     H18A     HAL3     0.900000E-01   1.00800           0
      8550 MEMB     74       CHL1     H18B     HAL3     0.900000E-01   1.00800           0
      8551 MEMB     74       CHL1     H18C     HAL3     0.900000E-01   1.00800           0
      8552 MEMB     74       CHL1     C12      CRL2    -0.180000       12.0110           0
      8553 MEMB     74       CHL1     H12A     HGA2     0.900000E-01   1.00800           0
      8554 MEMB     74       CHL1     H12B     HGA2     0.900000E-01   1.00800           0
      8555 MEMB     74       CHL1     C11      CRL2    -0.180000       12.0110           0
      8556 MEMB     74       CHL1     H11A     HGA2     0.900000E-01   1.00800           0
      8557 MEMB     74       CHL1     H11B     HGA2     0.900000E-01   1.00800           0
      8558 MEMB     74       CHL1     C9       CRL1    -0.900000E-01   12.0110           0
      8559 MEMB     74       CHL1     H9       HGA1     0.900000E-01   1.00800           0
      8560 MEMB     74       CHL1     C10      CRL1      0.00000       12.0110           0
      8561 MEMB     74       CHL1     C19      CTL3    -0.270000       12.0110           0
      8562 MEMB     74       CHL1     H19A     HAL3     0.900000E-01   1.00800           0
      8563 MEMB     74       CHL1     H19B     HAL3     0.900000E-01   1.00800           0
      8564 MEMB     74       CHL1     H19C     HAL3     0.900000E-01   1.00800           0
      8565 MEMB     74       CHL1     C1       CRL2    -0.180000       12.0110           0
      8566 MEMB     74       CHL1     H1A      HGA2     0.900000E-01   1.00800           0
      8567 MEMB     74       CHL1     H1B      HGA2     0.900000E-01   1.00800           0
      8568 MEMB     74       CHL1     C2       CRL2    -0.180000       12.0110           0
      8569 MEMB     74       CHL1     H2A      HGA2     0.900000E-01   1.00800           0
      8570 MEMB     74       CHL1     H2B      HGA2     0.900000E-01   1.00800           0
      8571 MEMB     74       CHL1     C20      CTL1    -0.900000E-01   12.0110           0
      8572 MEMB     74       CHL1     H20      HAL1     0.900000E-01   1.00800           0
      8573 MEMB     74       CHL1     C21      CTL3    -0.270000       12.0110           0
      8574 MEMB     74       CHL1     H21A     HAL3     0.900000E-01   1.00800           0
      8575 MEMB     74       CHL1     H21B     HAL3     0.900000E-01   1.00800           0
      8576 MEMB     74       CHL1     H21C     HAL3     0.900000E-01   1.00800           0
      8577 MEMB     74       CHL1     C22      CTL2    -0.180000       12.0110           0
      8578 MEMB     74       CHL1     H22A     HAL2     0.900000E-01   1.00800           0
      8579 MEMB     74       CHL1     H22B     HAL2     0.900000E-01   1.00800           0
      8580 MEMB     74       CHL1     C23      CTL2    -0.180000       12.0110           0
      8581 MEMB     74       CHL1     H23A     HAL2     0.900000E-01   1.00800           0
      8582 MEMB     74       CHL1     H23B     HAL2     0.900000E-01   1.00800           0
      8583 MEMB     74       CHL1     C24      CTL2    -0.180000       12.0110           0
      8584 MEMB     74       CHL1     H24A     HAL2     0.900000E-01   1.00800           0
      8585 MEMB     74       CHL1     H24B     HAL2     0.900000E-01   1.00800           0
      8586 MEMB     74       CHL1     C25      CTL1    -0.900000E-01   12.0110           0
      8587 MEMB     74       CHL1     H25      HAL1     0.900000E-01   1.00800           0
      8588 MEMB     74       CHL1     C26      CTL3    -0.270000       12.0110           0
      8589 MEMB     74       CHL1     H26A     HAL3     0.900000E-01   1.00800           0
      8590 MEMB     74       CHL1     H26B     HAL3     0.900000E-01   1.00800           0
      8591 MEMB     74       CHL1     H26C     HAL3     0.900000E-01   1.00800           0
      8592 MEMB     74       CHL1     C27      CTL3    -0.270000       12.0110           0
      8593 MEMB     74       CHL1     H27A     HAL3     0.900000E-01   1.00800           0
      8594 MEMB     74       CHL1     H27B     HAL3     0.900000E-01   1.00800           0
      8595 MEMB     74       CHL1     H27C     HAL3     0.900000E-01   1.00800           0
      8596 MEMB     75       SAPS     N        NH3L    -0.300000       14.0070           0
      8597 MEMB     75       SAPS     HN1      HCL      0.330000       1.00800           0
      8598 MEMB     75       SAPS     HN2      HCL      0.330000       1.00800           0
      8599 MEMB     75       SAPS     HN3      HCL      0.330000       1.00800           0
      8600 MEMB     75       SAPS     C12      CTL1     0.210000       12.0110           0
      8601 MEMB     75       SAPS     H12A     HBL      0.100000       1.00800           0
      8602 MEMB     75       SAPS     C13      CCL      0.340000       12.0110           0
      8603 MEMB     75       SAPS     O13A     OCL     -0.670000       15.9994           0
      8604 MEMB     75       SAPS     O13B     OCL     -0.670000       15.9994           0
      8605 MEMB     75       SAPS     C11      CTL2    -0.800000E-01   12.0110           0
      8606 MEMB     75       SAPS     H11A     HAL2     0.900000E-01   1.00800           0
      8607 MEMB     75       SAPS     H11B     HAL2     0.900000E-01   1.00800           0
      8608 MEMB     75       SAPS     P        PL        1.50000       30.9740           0
      8609 MEMB     75       SAPS     O13      O2L     -0.780000       15.9994           0
      8610 MEMB     75       SAPS     O14      O2L     -0.780000       15.9994           0
      8611 MEMB     75       SAPS     O12      OSLP    -0.570000       15.9994           0
      8612 MEMB     75       SAPS     O11      OSLP    -0.570000       15.9994           0
      8613 MEMB     75       SAPS     C1       CTL2    -0.800000E-01   12.0110           0
      8614 MEMB     75       SAPS     HA       HAL2     0.900000E-01   1.00800           0
      8615 MEMB     75       SAPS     HB       HAL2     0.900000E-01   1.00800           0
      8616 MEMB     75       SAPS     C2       CTL1     0.170000       12.0110           0
      8617 MEMB     75       SAPS     HS       HAL1     0.900000E-01   1.00800           0
      8618 MEMB     75       SAPS     O21      OSL     -0.490000       15.9994           0
      8619 MEMB     75       SAPS     C21      CL       0.900000       12.0110           0
      8620 MEMB     75       SAPS     O22      OBL     -0.630000       15.9994           0
      8621 MEMB     75       SAPS     C22      CTL2    -0.220000       12.0110           0
      8622 MEMB     75       SAPS     H2R      HAL2     0.900000E-01   1.00800           0
      8623 MEMB     75       SAPS     H2S      HAL2     0.900000E-01   1.00800           0
      8624 MEMB     75       SAPS     C3       CTL2     0.800000E-01   12.0110           0
      8625 MEMB     75       SAPS     HX       HAL2     0.900000E-01   1.00800           0
      8626 MEMB     75       SAPS     HY       HAL2     0.900000E-01   1.00800           0
      8627 MEMB     75       SAPS     O31      OSL     -0.490000       15.9994           0
      8628 MEMB     75       SAPS     C31      CL       0.900000       12.0110           0
      8629 MEMB     75       SAPS     O32      OBL     -0.630000       15.9994           0
      8630 MEMB     75       SAPS     C32      CTL2    -0.220000       12.0110           0
      8631 MEMB     75       SAPS     H2X      HAL2     0.900000E-01   1.00800           0
      8632 MEMB     75       SAPS     H2Y      HAL2     0.900000E-01   1.00800           0
      8633 MEMB     75       SAPS     C23      CTL2    -0.180000       12.0110           0
      8634 MEMB     75       SAPS     H3R      HAL2     0.900000E-01   1.00800           0
      8635 MEMB     75       SAPS     H3S      HAL2     0.900000E-01   1.00800           0
      8636 MEMB     75       SAPS     C24      CTL2    -0.180000       12.0110           0
      8637 MEMB     75       SAPS     H4R      HAL2     0.900000E-01   1.00800           0
      8638 MEMB     75       SAPS     H4S      HAL2     0.900000E-01   1.00800           0
      8639 MEMB     75       SAPS     C25      CEL1    -0.150000       12.0110           0
      8640 MEMB     75       SAPS     H5R      HEL1     0.150000       1.00800           0
      8641 MEMB     75       SAPS     C26      CEL1    -0.150000       12.0110           0
      8642 MEMB     75       SAPS     H6R      HEL1     0.150000       1.00800           0
      8643 MEMB     75       SAPS     C27      CTL2    -0.180000       12.0110           0
      8644 MEMB     75       SAPS     H7R      HAL2     0.900000E-01   1.00800           0
      8645 MEMB     75       SAPS     H7S      HAL2     0.900000E-01   1.00800           0
      8646 MEMB     75       SAPS     C28      CEL1    -0.150000       12.0110           0
      8647 MEMB     75       SAPS     H8R      HEL1     0.150000       1.00800           0
      8648 MEMB     75       SAPS     C29      CEL1    -0.150000       12.0110           0
      8649 MEMB     75       SAPS     H9R      HEL1     0.150000       1.00800           0
      8650 MEMB     75       SAPS     C210     CTL2    -0.180000       12.0110           0
      8651 MEMB     75       SAPS     H10R     HAL2     0.900000E-01   1.00800           0
      8652 MEMB     75       SAPS     H10S     HAL2     0.900000E-01   1.00800           0
      8653 MEMB     75       SAPS     C211     CEL1    -0.150000       12.0110           0
      8654 MEMB     75       SAPS     H11R     HEL1     0.150000       1.00800           0
      8655 MEMB     75       SAPS     C212     CEL1    -0.150000       12.0110           0
      8656 MEMB     75       SAPS     H12R     HEL1     0.150000       1.00800           0
      8657 MEMB     75       SAPS     C213     CTL2    -0.180000       12.0110           0
      8658 MEMB     75       SAPS     H13R     HAL2     0.900000E-01   1.00800           0
      8659 MEMB     75       SAPS     H13S     HAL2     0.900000E-01   1.00800           0
      8660 MEMB     75       SAPS     C214     CEL1    -0.150000       12.0110           0
      8661 MEMB     75       SAPS     H14R     HEL1     0.150000       1.00800           0
      8662 MEMB     75       SAPS     C215     CEL1    -0.150000       12.0110           0
      8663 MEMB     75       SAPS     H15R     HEL1     0.150000       1.00800           0
      8664 MEMB     75       SAPS     C216     CTL2    -0.180000       12.0110           0
      8665 MEMB     75       SAPS     H16R     HAL2     0.900000E-01   1.00800           0
      8666 MEMB     75       SAPS     H16S     HAL2     0.900000E-01   1.00800           0
      8667 MEMB     75       SAPS     C217     CTL2    -0.180000       12.0110           0
      8668 MEMB     75       SAPS     H17R     HAL2     0.900000E-01   1.00800           0
      8669 MEMB     75       SAPS     H17S     HAL2     0.900000E-01   1.00800           0
      8670 MEMB     75       SAPS     C218     CTL2    -0.180000       12.0110           0
      8671 MEMB     75       SAPS     H18R     HAL2     0.900000E-01   1.00800           0
      8672 MEMB     75       SAPS     H18S     HAL2     0.900000E-01   1.00800           0
      8673 MEMB     75       SAPS     C219     CTL2    -0.180000       12.0110           0
      8674 MEMB     75       SAPS     H19R     HAL2     0.900000E-01   1.00800           0
      8675 MEMB     75       SAPS     H19S     HAL2     0.900000E-01   1.00800           0
      8676 MEMB     75       SAPS     C220     CTL3    -0.270000       12.0110           0
      8677 MEMB     75       SAPS     H20R     HAL3     0.900000E-01   1.00800           0
      8678 MEMB     75       SAPS     H20S     HAL3     0.900000E-01   1.00800           0
      8679 MEMB     75       SAPS     H20T     HAL3     0.900000E-01   1.00800           0
      8680 MEMB     75       SAPS     C33      CTL2    -0.180000       12.0110           0
      8681 MEMB     75       SAPS     H3X      HAL2     0.900000E-01   1.00800           0
      8682 MEMB     75       SAPS     H3Y      HAL2     0.900000E-01   1.00800           0
      8683 MEMB     75       SAPS     C34      CTL2    -0.180000       12.0110           0
      8684 MEMB     75       SAPS     H4X      HAL2     0.900000E-01   1.00800           0
      8685 MEMB     75       SAPS     H4Y      HAL2     0.900000E-01   1.00800           0
      8686 MEMB     75       SAPS     C35      CTL2    -0.180000       12.0110           0
      8687 MEMB     75       SAPS     H5X      HAL2     0.900000E-01   1.00800           0
      8688 MEMB     75       SAPS     H5Y      HAL2     0.900000E-01   1.00800           0
      8689 MEMB     75       SAPS     C36      CTL2    -0.180000       12.0110           0
      8690 MEMB     75       SAPS     H6X      HAL2     0.900000E-01   1.00800           0
      8691 MEMB     75       SAPS     H6Y      HAL2     0.900000E-01   1.00800           0
      8692 MEMB     75       SAPS     C37      CTL2    -0.180000       12.0110           0
      8693 MEMB     75       SAPS     H7X      HAL2     0.900000E-01   1.00800           0
      8694 MEMB     75       SAPS     H7Y      HAL2     0.900000E-01   1.00800           0
      8695 MEMB     75       SAPS     C38      CTL2    -0.180000       12.0110           0
      8696 MEMB     75       SAPS     H8X      HAL2     0.900000E-01   1.00800           0
      8697 MEMB     75       SAPS     H8Y      HAL2     0.900000E-01   1.00800           0
      8698 MEMB     75       SAPS     C39      CTL2    -0.180000       12.0110           0
      8699 MEMB     75       SAPS     H9X      HAL2     0.900000E-01   1.00800           0
      8700 MEMB     75       SAPS     H9Y      HAL2     0.900000E-01   1.00800           0
      8701 MEMB     75       SAPS     C310     CTL2    -0.180000       12.0110           0
      8702 MEMB     75       SAPS     H10X     HAL2     0.900000E-01   1.00800           0
      8703 MEMB     75       SAPS     H10Y     HAL2     0.900000E-01   1.00800           0
      8704 MEMB     75       SAPS     C311     CTL2    -0.180000       12.0110           0
      8705 MEMB     75       SAPS     H11X     HAL2     0.900000E-01   1.00800           0
      8706 MEMB     75       SAPS     H11Y     HAL2     0.900000E-01   1.00800           0
      8707 MEMB     75       SAPS     C312     CTL2    -0.180000       12.0110           0
      8708 MEMB     75       SAPS     H12X     HAL2     0.900000E-01   1.00800           0
      8709 MEMB     75       SAPS     H12Y     HAL2     0.900000E-01   1.00800           0
      8710 MEMB     75       SAPS     C313     CTL2    -0.180000       12.0110           0
      8711 MEMB     75       SAPS     H13X     HAL2     0.900000E-01   1.00800           0
      8712 MEMB     75       SAPS     H13Y     HAL2     0.900000E-01   1.00800           0
      8713 MEMB     75       SAPS     C314     CTL2    -0.180000       12.0110           0
      8714 MEMB     75       SAPS     H14X     HAL2     0.900000E-01   1.00800           0
      8715 MEMB     75       SAPS     H14Y     HAL2     0.900000E-01   1.00800           0
      8716 MEMB     75       SAPS     C315     CTL2    -0.180000       12.0110           0
      8717 MEMB     75       SAPS     H15X     HAL2     0.900000E-01   1.00800           0
      8718 MEMB     75       SAPS     H15Y     HAL2     0.900000E-01   1.00800           0
      8719 MEMB     75       SAPS     C316     CTL2    -0.180000       12.0110           0
      8720 MEMB     75       SAPS     H16X     HAL2     0.900000E-01   1.00800           0
      8721 MEMB     75       SAPS     H16Y     HAL2     0.900000E-01   1.00800           0
      8722 MEMB     75       SAPS     C317     CTL2    -0.180000       12.0110           0
      8723 MEMB     75       SAPS     H17X     HAL2     0.900000E-01   1.00800           0
      8724 MEMB     75       SAPS     H17Y     HAL2     0.900000E-01   1.00800           0
      8725 MEMB     75       SAPS     C318     CTL3    -0.270000       12.0110           0
      8726 MEMB     75       SAPS     H18X     HAL3     0.900000E-01   1.00800           0
      8727 MEMB     75       SAPS     H18Y     HAL3     0.900000E-01   1.00800           0
      8728 MEMB     75       SAPS     H18Z     HAL3     0.900000E-01   1.00800           0
      8729 MEMB     76       OSM      N        NTL     -0.600000       14.0070           0
      8730 MEMB     76       OSM      C15      CTL5    -0.350000       12.0110           0
      8731 MEMB     76       OSM      H15A     HL       0.250000       1.00800           0
      8732 MEMB     76       OSM      H15B     HL       0.250000       1.00800           0
      8733 MEMB     76       OSM      H15C     HL       0.250000       1.00800           0
      8734 MEMB     76       OSM      C14      CTL5    -0.350000       12.0110           0
      8735 MEMB     76       OSM      H14A     HL       0.250000       1.00800           0
      8736 MEMB     76       OSM      H14B     HL       0.250000       1.00800           0
      8737 MEMB     76       OSM      H14C     HL       0.250000       1.00800           0
      8738 MEMB     76       OSM      C13      CTL5    -0.350000       12.0110           0
      8739 MEMB     76       OSM      H13A     HL       0.250000       1.00800           0
      8740 MEMB     76       OSM      H13B     HL       0.250000       1.00800           0
      8741 MEMB     76       OSM      H13C     HL       0.250000       1.00800           0
      8742 MEMB     76       OSM      C12      CTL2    -0.100000       12.0110           0
      8743 MEMB     76       OSM      H12A     HL       0.250000       1.00800           0
      8744 MEMB     76       OSM      H12B     HL       0.250000       1.00800           0
      8745 MEMB     76       OSM      C11      CTL2    -0.800000E-01   12.0110           0
      8746 MEMB     76       OSM      H11A     HAL2     0.900000E-01   1.00800           0
      8747 MEMB     76       OSM      H11B     HAL2     0.900000E-01   1.00800           0
      8748 MEMB     76       OSM      P        PL        1.50000       30.9740           0
      8749 MEMB     76       OSM      O13      O2L     -0.780000       15.9994           0
      8750 MEMB     76       OSM      O14      O2L     -0.780000       15.9994           0
      8751 MEMB     76       OSM      O11      OSLP    -0.570000       15.9994           0
      8752 MEMB     76       OSM      O12      OSLP    -0.570000       15.9994           0
      8753 MEMB     76       OSM      C1S      CTL2    -0.800000E-01   12.0110           0
      8754 MEMB     76       OSM      H1S      HAL2     0.900000E-01   1.00800           0
      8755 MEMB     76       OSM      H1T      HAL2     0.900000E-01   1.00800           0
      8756 MEMB     76       OSM      NF       NHL     -0.700000       14.0070           0
      8757 MEMB     76       OSM      HNF      H        0.350000       1.00800           0
      8758 MEMB     76       OSM      C2S      CTL1     0.300000       12.0110           0
      8759 MEMB     76       OSM      H2S      HAL1     0.500000E-01   1.00800           0
      8760 MEMB     76       OSM      C3S      CTO1     0.500000       12.0110           0
      8761 MEMB     76       OSM      H3S      HAL1    -0.110000       1.00800           0
      8762 MEMB     76       OSM      O3       OHL     -0.690000       15.9994           0
      8763 MEMB     76       OSM      HO3      HOL      0.300000       1.00800           0
      8764 MEMB     76       OSM      C4S      CEL3    -0.150000       12.0110           0
      8765 MEMB     76       OSM      H4S      HEL1     0.150000       1.00800           0
      8766 MEMB     76       OSM      C5S      CEL3    -0.150000       12.0110           0
      8767 MEMB     76       OSM      H5S      HEL1     0.150000       1.00800           0
      8768 MEMB     76       OSM      C6S      CTL2    -0.180000       12.0110           0
      8769 MEMB     76       OSM      H6S      HAL2     0.900000E-01   1.00800           0
      8770 MEMB     76       OSM      H6T      HAL2     0.900000E-01   1.00800           0
      8771 MEMB     76       OSM      C7S      CTL2    -0.180000       12.0110           0
      8772 MEMB     76       OSM      H7S      HAL2     0.900000E-01   1.00800           0
      8773 MEMB     76       OSM      H7T      HAL2     0.900000E-01   1.00800           0
      8774 MEMB     76       OSM      C8S      CTL2    -0.180000       12.0110           0
      8775 MEMB     76       OSM      H8S      HAL2     0.900000E-01   1.00800           0
      8776 MEMB     76       OSM      H8T      HAL2     0.900000E-01   1.00800           0
      8777 MEMB     76       OSM      C9S      CTL2    -0.180000       12.0110           0
      8778 MEMB     76       OSM      H9S      HAL2     0.900000E-01   1.00800           0
      8779 MEMB     76       OSM      H9T      HAL2     0.900000E-01   1.00800           0
      8780 MEMB     76       OSM      C10S     CTL2    -0.180000       12.0110           0
      8781 MEMB     76       OSM      H10S     HAL2     0.900000E-01   1.00800           0
      8782 MEMB     76       OSM      H10T     HAL2     0.900000E-01   1.00800           0
      8783 MEMB     76       OSM      C11S     CTL2    -0.180000       12.0110           0
      8784 MEMB     76       OSM      H11S     HAL2     0.900000E-01   1.00800           0
      8785 MEMB     76       OSM      H11T     HAL2     0.900000E-01   1.00800           0
      8786 MEMB     76       OSM      C12S     CTL2    -0.180000       12.0110           0
      8787 MEMB     76       OSM      H12S     HAL2     0.900000E-01   1.00800           0
      8788 MEMB     76       OSM      H12T     HAL2     0.900000E-01   1.00800           0
      8789 MEMB     76       OSM      C13S     CTL2    -0.180000       12.0110           0
      8790 MEMB     76       OSM      H13S     HAL2     0.900000E-01   1.00800           0
      8791 MEMB     76       OSM      H13T     HAL2     0.900000E-01   1.00800           0
      8792 MEMB     76       OSM      C14S     CTL2    -0.180000       12.0110           0
      8793 MEMB     76       OSM      H14S     HAL2     0.900000E-01   1.00800           0
      8794 MEMB     76       OSM      H14T     HAL2     0.900000E-01   1.00800           0
      8795 MEMB     76       OSM      C15S     CTL2    -0.180000       12.0110           0
      8796 MEMB     76       OSM      H15S     HAL2     0.900000E-01   1.00800           0
      8797 MEMB     76       OSM      H15T     HAL2     0.900000E-01   1.00800           0
      8798 MEMB     76       OSM      C16S     CTL2    -0.180000       12.0110           0
      8799 MEMB     76       OSM      H16S     HAL2     0.900000E-01   1.00800           0
      8800 MEMB     76       OSM      H16T     HAL2     0.900000E-01   1.00800           0
      8801 MEMB     76       OSM      C17S     CTL2    -0.180000       12.0110           0
      8802 MEMB     76       OSM      H17S     HAL2     0.900000E-01   1.00800           0
      8803 MEMB     76       OSM      H17T     HAL2     0.900000E-01   1.00800           0
      8804 MEMB     76       OSM      C18S     CTL3    -0.270000       12.0110           0
      8805 MEMB     76       OSM      H18S     HAL3     0.900000E-01   1.00800           0
      8806 MEMB     76       OSM      H18T     HAL3     0.900000E-01   1.00800           0
      8807 MEMB     76       OSM      H18U     HAL3     0.900000E-01   1.00800           0
      8808 MEMB     76       OSM      C1F      C        0.550000       12.0110           0
      8809 MEMB     76       OSM      OF       O       -0.600000       15.9994           0
      8810 MEMB     76       OSM      C2F      CTL2    -0.700000E-01   12.0110           0
      8811 MEMB     76       OSM      H2F      HAL2     0.600000E-01   1.00800           0
      8812 MEMB     76       OSM      H2G      HAL2     0.600000E-01   1.00800           0
      8813 MEMB     76       OSM      C3F      CTL2    -0.180000       12.0110           0
      8814 MEMB     76       OSM      H3F      HAL2     0.900000E-01   1.00800           0
      8815 MEMB     76       OSM      H3G      HAL2     0.900000E-01   1.00800           0
      8816 MEMB     76       OSM      C4F      CTL2    -0.180000       12.0110           0
      8817 MEMB     76       OSM      H4F      HAL2     0.900000E-01   1.00800           0
      8818 MEMB     76       OSM      H4G      HAL2     0.900000E-01   1.00800           0
      8819 MEMB     76       OSM      C5F      CTL2    -0.180000       12.0110           0
      8820 MEMB     76       OSM      H5F      HAL2     0.900000E-01   1.00800           0
      8821 MEMB     76       OSM      H5G      HAL2     0.900000E-01   1.00800           0
      8822 MEMB     76       OSM      C6F      CTL2    -0.180000       12.0110           0
      8823 MEMB     76       OSM      H6F      HAL2     0.900000E-01   1.00800           0
      8824 MEMB     76       OSM      H6G      HAL2     0.900000E-01   1.00800           0
      8825 MEMB     76       OSM      C7F      CTL2    -0.180000       12.0110           0
      8826 MEMB     76       OSM      H7F      HAL2     0.900000E-01   1.00800           0
      8827 MEMB     76       OSM      H7G      HAL2     0.900000E-01   1.00800           0
      8828 MEMB     76       OSM      C8F      CTL2    -0.180000       12.0110           0
      8829 MEMB     76       OSM      H8F      HAL2     0.900000E-01   1.00800           0
      8830 MEMB     76       OSM      H8G      HAL2     0.900000E-01   1.00800           0
      8831 MEMB     76       OSM      C9F      CEL1    -0.150000       12.0110           0
      8832 MEMB     76       OSM      H9F      HEL1     0.150000       1.00800           0
      8833 MEMB     76       OSM      C10F     CEL1    -0.150000       12.0110           0
      8834 MEMB     76       OSM      H10F     HEL1     0.150000       1.00800           0
      8835 MEMB     76       OSM      C11F     CTL2    -0.180000       12.0110           0
      8836 MEMB     76       OSM      H11F     HAL2     0.900000E-01   1.00800           0
      8837 MEMB     76       OSM      H11G     HAL2     0.900000E-01   1.00800           0
      8838 MEMB     76       OSM      C12F     CTL2    -0.180000       12.0110           0
      8839 MEMB     76       OSM      H12F     HAL2     0.900000E-01   1.00800           0
      8840 MEMB     76       OSM      H12G     HAL2     0.900000E-01   1.00800           0
      8841 MEMB     76       OSM      C13F     CTL2    -0.180000       12.0110           0
      8842 MEMB     76       OSM      H13F     HAL2     0.900000E-01   1.00800           0
      8843 MEMB     76       OSM      H13G     HAL2     0.900000E-01   1.00800           0
      8844 MEMB     76       OSM      C14F     CTL2    -0.180000       12.0110           0
      8845 MEMB     76       OSM      H14F     HAL2     0.900000E-01   1.00800           0
      8846 MEMB     76       OSM      H14G     HAL2     0.900000E-01   1.00800           0
      8847 MEMB     76       OSM      C15F     CTL2    -0.180000       12.0110           0
      8848 MEMB     76       OSM      H15F     HAL2     0.900000E-01   1.00800           0
      8849 MEMB     76       OSM      H15G     HAL2     0.900000E-01   1.00800           0
      8850 MEMB     76       OSM      C16F     CTL2    -0.180000       12.0110           0
      8851 MEMB     76       OSM      H16F     HAL2     0.900000E-01   1.00800           0
      8852 MEMB     76       OSM      H16G     HAL2     0.900000E-01   1.00800           0
      8853 MEMB     76       OSM      C17F     CTL2    -0.180000       12.0110           0
      8854 MEMB     76       OSM      H17F     HAL2     0.900000E-01   1.00800           0
      8855 MEMB     76       OSM      H17G     HAL2     0.900000E-01   1.00800           0
      8856 MEMB     76       OSM      C18F     CTL3    -0.270000       12.0110           0
      8857 MEMB     76       OSM      H18F     HAL3     0.900000E-01   1.00800           0
      8858 MEMB     76       OSM      H18G     HAL3     0.900000E-01   1.00800           0
      8859 MEMB     76       OSM      H18H     HAL3     0.900000E-01   1.00800           0
      8860 MEMB     77       SAPE     N        NH3L    -0.300000       14.0070           0
      8861 MEMB     77       SAPE     HN1      HCL      0.330000       1.00800           0
      8862 MEMB     77       SAPE     HN2      HCL      0.330000       1.00800           0
      8863 MEMB     77       SAPE     HN3      HCL      0.330000       1.00800           0
      8864 MEMB     77       SAPE     C12      CTL2     0.130000       12.0110           0
      8865 MEMB     77       SAPE     H12A     HAL2     0.900000E-01   1.00800           0
      8866 MEMB     77       SAPE     H12B     HAL2     0.900000E-01   1.00800           0
      8867 MEMB     77       SAPE     C11      CTL2    -0.800000E-01   12.0110           0
      8868 MEMB     77       SAPE     H11A     HAL2     0.900000E-01   1.00800           0
      8869 MEMB     77       SAPE     H11B     HAL2     0.900000E-01   1.00800           0
      8870 MEMB     77       SAPE     P        PL        1.50000       30.9740           0
      8871 MEMB     77       SAPE     O13      O2L     -0.780000       15.9994           0
      8872 MEMB     77       SAPE     O14      O2L     -0.780000       15.9994           0
      8873 MEMB     77       SAPE     O12      OSLP    -0.570000       15.9994           0
      8874 MEMB     77       SAPE     O11      OSLP    -0.570000       15.9994           0
      8875 MEMB     77       SAPE     C1       CTL2    -0.800000E-01   12.0110           0
      8876 MEMB     77       SAPE     HA       HAL2     0.900000E-01   1.00800           0
      8877 MEMB     77       SAPE     HB       HAL2     0.900000E-01   1.00800           0
      8878 MEMB     77       SAPE     C2       CTL1     0.170000       12.0110           0
      8879 MEMB     77       SAPE     HS       HAL1     0.900000E-01   1.00800           0
      8880 MEMB     77       SAPE     O21      OSL     -0.490000       15.9994           0
      8881 MEMB     77       SAPE     C21      CL       0.900000       12.0110           0
      8882 MEMB     77       SAPE     O22      OBL     -0.630000       15.9994           0
      8883 MEMB     77       SAPE     C22      CTL2    -0.220000       12.0110           0
      8884 MEMB     77       SAPE     H2R      HAL2     0.900000E-01   1.00800           0
      8885 MEMB     77       SAPE     H2S      HAL2     0.900000E-01   1.00800           0
      8886 MEMB     77       SAPE     C3       CTL2     0.800000E-01   12.0110           0
      8887 MEMB     77       SAPE     HX       HAL2     0.900000E-01   1.00800           0
      8888 MEMB     77       SAPE     HY       HAL2     0.900000E-01   1.00800           0
      8889 MEMB     77       SAPE     O31      OSL     -0.490000       15.9994           0
      8890 MEMB     77       SAPE     C31      CL       0.900000       12.0110           0
      8891 MEMB     77       SAPE     O32      OBL     -0.630000       15.9994           0
      8892 MEMB     77       SAPE     C32      CTL2    -0.220000       12.0110           0
      8893 MEMB     77       SAPE     H2X      HAL2     0.900000E-01   1.00800           0
      8894 MEMB     77       SAPE     H2Y      HAL2     0.900000E-01   1.00800           0
      8895 MEMB     77       SAPE     C23      CTL2    -0.180000       12.0110           0
      8896 MEMB     77       SAPE     H3R      HAL2     0.900000E-01   1.00800           0
      8897 MEMB     77       SAPE     H3S      HAL2     0.900000E-01   1.00800           0
      8898 MEMB     77       SAPE     C24      CTL2    -0.180000       12.0110           0
      8899 MEMB     77       SAPE     H4R      HAL2     0.900000E-01   1.00800           0
      8900 MEMB     77       SAPE     H4S      HAL2     0.900000E-01   1.00800           0
      8901 MEMB     77       SAPE     C25      CEL1    -0.150000       12.0110           0
      8902 MEMB     77       SAPE     H5R      HEL1     0.150000       1.00800           0
      8903 MEMB     77       SAPE     C26      CEL1    -0.150000       12.0110           0
      8904 MEMB     77       SAPE     H6R      HEL1     0.150000       1.00800           0
      8905 MEMB     77       SAPE     C27      CTL2    -0.180000       12.0110           0
      8906 MEMB     77       SAPE     H7R      HAL2     0.900000E-01   1.00800           0
      8907 MEMB     77       SAPE     H7S      HAL2     0.900000E-01   1.00800           0
      8908 MEMB     77       SAPE     C28      CEL1    -0.150000       12.0110           0
      8909 MEMB     77       SAPE     H8R      HEL1     0.150000       1.00800           0
      8910 MEMB     77       SAPE     C29      CEL1    -0.150000       12.0110           0
      8911 MEMB     77       SAPE     H9R      HEL1     0.150000       1.00800           0
      8912 MEMB     77       SAPE     C210     CTL2    -0.180000       12.0110           0
      8913 MEMB     77       SAPE     H10R     HAL2     0.900000E-01   1.00800           0
      8914 MEMB     77       SAPE     H10S     HAL2     0.900000E-01   1.00800           0
      8915 MEMB     77       SAPE     C211     CEL1    -0.150000       12.0110           0
      8916 MEMB     77       SAPE     H11R     HEL1     0.150000       1.00800           0
      8917 MEMB     77       SAPE     C212     CEL1    -0.150000       12.0110           0
      8918 MEMB     77       SAPE     H12R     HEL1     0.150000       1.00800           0
      8919 MEMB     77       SAPE     C213     CTL2    -0.180000       12.0110           0
      8920 MEMB     77       SAPE     H13R     HAL2     0.900000E-01   1.00800           0
      8921 MEMB     77       SAPE     H13S     HAL2     0.900000E-01   1.00800           0
      8922 MEMB     77       SAPE     C214     CEL1    -0.150000       12.0110           0
      8923 MEMB     77       SAPE     H14R     HEL1     0.150000       1.00800           0
      8924 MEMB     77       SAPE     C215     CEL1    -0.150000       12.0110           0
      8925 MEMB     77       SAPE     H15R     HEL1     0.150000       1.00800           0
      8926 MEMB     77       SAPE     C216     CTL2    -0.180000       12.0110           0
      8927 MEMB     77       SAPE     H16R     HAL2     0.900000E-01   1.00800           0
      8928 MEMB     77       SAPE     H16S     HAL2     0.900000E-01   1.00800           0
      8929 MEMB     77       SAPE     C217     CTL2    -0.180000       12.0110           0
      8930 MEMB     77       SAPE     H17R     HAL2     0.900000E-01   1.00800           0
      8931 MEMB     77       SAPE     H17S     HAL2     0.900000E-01   1.00800           0
      8932 MEMB     77       SAPE     C218     CTL2    -0.180000       12.0110           0
      8933 MEMB     77       SAPE     H18R     HAL2     0.900000E-01   1.00800           0
      8934 MEMB     77       SAPE     H18S     HAL2     0.900000E-01   1.00800           0
      8935 MEMB     77       SAPE     C219     CTL2    -0.180000       12.0110           0
      8936 MEMB     77       SAPE     H19R     HAL2     0.900000E-01   1.00800           0
      8937 MEMB     77       SAPE     H19S     HAL2     0.900000E-01   1.00800           0
      8938 MEMB     77       SAPE     C220     CTL3    -0.270000       12.0110           0
      8939 MEMB     77       SAPE     H20R     HAL3     0.900000E-01   1.00800           0
      8940 MEMB     77       SAPE     H20S     HAL3     0.900000E-01   1.00800           0
      8941 MEMB     77       SAPE     H20T     HAL3     0.900000E-01   1.00800           0
      8942 MEMB     77       SAPE     C33      CTL2    -0.180000       12.0110           0
      8943 MEMB     77       SAPE     H3X      HAL2     0.900000E-01   1.00800           0
      8944 MEMB     77       SAPE     H3Y      HAL2     0.900000E-01   1.00800           0
      8945 MEMB     77       SAPE     C34      CTL2    -0.180000       12.0110           0
      8946 MEMB     77       SAPE     H4X      HAL2     0.900000E-01   1.00800           0
      8947 MEMB     77       SAPE     H4Y      HAL2     0.900000E-01   1.00800           0
      8948 MEMB     77       SAPE     C35      CTL2    -0.180000       12.0110           0
      8949 MEMB     77       SAPE     H5X      HAL2     0.900000E-01   1.00800           0
      8950 MEMB     77       SAPE     H5Y      HAL2     0.900000E-01   1.00800           0
      8951 MEMB     77       SAPE     C36      CTL2    -0.180000       12.0110           0
      8952 MEMB     77       SAPE     H6X      HAL2     0.900000E-01   1.00800           0
      8953 MEMB     77       SAPE     H6Y      HAL2     0.900000E-01   1.00800           0
      8954 MEMB     77       SAPE     C37      CTL2    -0.180000       12.0110           0
      8955 MEMB     77       SAPE     H7X      HAL2     0.900000E-01   1.00800           0
      8956 MEMB     77       SAPE     H7Y      HAL2     0.900000E-01   1.00800           0
      8957 MEMB     77       SAPE     C38      CTL2    -0.180000       12.0110           0
      8958 MEMB     77       SAPE     H8X      HAL2     0.900000E-01   1.00800           0
      8959 MEMB     77       SAPE     H8Y      HAL2     0.900000E-01   1.00800           0
      8960 MEMB     77       SAPE     C39      CTL2    -0.180000       12.0110           0
      8961 MEMB     77       SAPE     H9X      HAL2     0.900000E-01   1.00800           0
      8962 MEMB     77       SAPE     H9Y      HAL2     0.900000E-01   1.00800           0
      8963 MEMB     77       SAPE     C310     CTL2    -0.180000       12.0110           0
      8964 MEMB     77       SAPE     H10X     HAL2     0.900000E-01   1.00800           0
      8965 MEMB     77       SAPE     H10Y     HAL2     0.900000E-01   1.00800           0
      8966 MEMB     77       SAPE     C311     CTL2    -0.180000       12.0110           0
      8967 MEMB     77       SAPE     H11X     HAL2     0.900000E-01   1.00800           0
      8968 MEMB     77       SAPE     H11Y     HAL2     0.900000E-01   1.00800           0
      8969 MEMB     77       SAPE     C312     CTL2    -0.180000       12.0110           0
      8970 MEMB     77       SAPE     H12X     HAL2     0.900000E-01   1.00800           0
      8971 MEMB     77       SAPE     H12Y     HAL2     0.900000E-01   1.00800           0
      8972 MEMB     77       SAPE     C313     CTL2    -0.180000       12.0110           0
      8973 MEMB     77       SAPE     H13X     HAL2     0.900000E-01   1.00800           0
      8974 MEMB     77       SAPE     H13Y     HAL2     0.900000E-01   1.00800           0
      8975 MEMB     77       SAPE     C314     CTL2    -0.180000       12.0110           0
      8976 MEMB     77       SAPE     H14X     HAL2     0.900000E-01   1.00800           0
      8977 MEMB     77       SAPE     H14Y     HAL2     0.900000E-01   1.00800           0
      8978 MEMB     77       SAPE     C315     CTL2    -0.180000       12.0110           0
      8979 MEMB     77       SAPE     H15X     HAL2     0.900000E-01   1.00800           0
      8980 MEMB     77       SAPE     H15Y     HAL2     0.900000E-01   1.00800           0
      8981 MEMB     77       SAPE     C316     CTL2    -0.180000       12.0110           0
      8982 MEMB     77       SAPE     H16X     HAL2     0.900000E-01   1.00800           0
      8983 MEMB     77       SAPE     H16Y     HAL2     0.900000E-01   1.00800           0
      8984 MEMB     77       SAPE     C317     CTL2    -0.180000       12.0110           0
      8985 MEMB     77       SAPE     H17X     HAL2     0.900000E-01   1.00800           0
      8986 MEMB     77       SAPE     H17Y     HAL2     0.900000E-01   1.00800           0
      8987 MEMB     77       SAPE     C318     CTL3    -0.270000       12.0110           0
      8988 MEMB     77       SAPE     H18X     HAL3     0.900000E-01   1.00800           0
      8989 MEMB     77       SAPE     H18Y     HAL3     0.900000E-01   1.00800           0
      8990 MEMB     77       SAPE     H18Z     HAL3     0.900000E-01   1.00800           0
      8991 MEMB     78       OSM      N        NTL     -0.600000       14.0070           0
      8992 MEMB     78       OSM      C15      CTL5    -0.350000       12.0110           0
      8993 MEMB     78       OSM      H15A     HL       0.250000       1.00800           0
      8994 MEMB     78       OSM      H15B     HL       0.250000       1.00800           0
      8995 MEMB     78       OSM      H15C     HL       0.250000       1.00800           0
      8996 MEMB     78       OSM      C14      CTL5    -0.350000       12.0110           0
      8997 MEMB     78       OSM      H14A     HL       0.250000       1.00800           0
      8998 MEMB     78       OSM      H14B     HL       0.250000       1.00800           0
      8999 MEMB     78       OSM      H14C     HL       0.250000       1.00800           0
      9000 MEMB     78       OSM      C13      CTL5    -0.350000       12.0110           0
      9001 MEMB     78       OSM      H13A     HL       0.250000       1.00800           0
      9002 MEMB     78       OSM      H13B     HL       0.250000       1.00800           0
      9003 MEMB     78       OSM      H13C     HL       0.250000       1.00800           0
      9004 MEMB     78       OSM      C12      CTL2    -0.100000       12.0110           0
      9005 MEMB     78       OSM      H12A     HL       0.250000       1.00800           0
      9006 MEMB     78       OSM      H12B     HL       0.250000       1.00800           0
      9007 MEMB     78       OSM      C11      CTL2    -0.800000E-01   12.0110           0
      9008 MEMB     78       OSM      H11A     HAL2     0.900000E-01   1.00800           0
      9009 MEMB     78       OSM      H11B     HAL2     0.900000E-01   1.00800           0
      9010 MEMB     78       OSM      P        PL        1.50000       30.9740           0
      9011 MEMB     78       OSM      O13      O2L     -0.780000       15.9994           0
      9012 MEMB     78       OSM      O14      O2L     -0.780000       15.9994           0
      9013 MEMB     78       OSM      O11      OSLP    -0.570000       15.9994           0
      9014 MEMB     78       OSM      O12      OSLP    -0.570000       15.9994           0
      9015 MEMB     78       OSM      C1S      CTL2    -0.800000E-01   12.0110           0
      9016 MEMB     78       OSM      H1S      HAL2     0.900000E-01   1.00800           0
      9017 MEMB     78       OSM      H1T      HAL2     0.900000E-01   1.00800           0
      9018 MEMB     78       OSM      NF       NHL     -0.700000       14.0070           0
      9019 MEMB     78       OSM      HNF      H        0.350000       1.00800           0
      9020 MEMB     78       OSM      C2S      CTL1     0.300000       12.0110           0
      9021 MEMB     78       OSM      H2S      HAL1     0.500000E-01   1.00800           0
      9022 MEMB     78       OSM      C3S      CTO1     0.500000       12.0110           0
      9023 MEMB     78       OSM      H3S      HAL1    -0.110000       1.00800           0
      9024 MEMB     78       OSM      O3       OHL     -0.690000       15.9994           0
      9025 MEMB     78       OSM      HO3      HOL      0.300000       1.00800           0
      9026 MEMB     78       OSM      C4S      CEL3    -0.150000       12.0110           0
      9027 MEMB     78       OSM      H4S      HEL1     0.150000       1.00800           0
      9028 MEMB     78       OSM      C5S      CEL3    -0.150000       12.0110           0
      9029 MEMB     78       OSM      H5S      HEL1     0.150000       1.00800           0
      9030 MEMB     78       OSM      C6S      CTL2    -0.180000       12.0110           0
      9031 MEMB     78       OSM      H6S      HAL2     0.900000E-01   1.00800           0
      9032 MEMB     78       OSM      H6T      HAL2     0.900000E-01   1.00800           0
      9033 MEMB     78       OSM      C7S      CTL2    -0.180000       12.0110           0
      9034 MEMB     78       OSM      H7S      HAL2     0.900000E-01   1.00800           0
      9035 MEMB     78       OSM      H7T      HAL2     0.900000E-01   1.00800           0
      9036 MEMB     78       OSM      C8S      CTL2    -0.180000       12.0110           0
      9037 MEMB     78       OSM      H8S      HAL2     0.900000E-01   1.00800           0
      9038 MEMB     78       OSM      H8T      HAL2     0.900000E-01   1.00800           0
      9039 MEMB     78       OSM      C9S      CTL2    -0.180000       12.0110           0
      9040 MEMB     78       OSM      H9S      HAL2     0.900000E-01   1.00800           0
      9041 MEMB     78       OSM      H9T      HAL2     0.900000E-01   1.00800           0
      9042 MEMB     78       OSM      C10S     CTL2    -0.180000       12.0110           0
      9043 MEMB     78       OSM      H10S     HAL2     0.900000E-01   1.00800           0
      9044 MEMB     78       OSM      H10T     HAL2     0.900000E-01   1.00800           0
      9045 MEMB     78       OSM      C11S     CTL2    -0.180000       12.0110           0
      9046 MEMB     78       OSM      H11S     HAL2     0.900000E-01   1.00800           0
      9047 MEMB     78       OSM      H11T     HAL2     0.900000E-01   1.00800           0
      9048 MEMB     78       OSM      C12S     CTL2    -0.180000       12.0110           0
      9049 MEMB     78       OSM      H12S     HAL2     0.900000E-01   1.00800           0
      9050 MEMB     78       OSM      H12T     HAL2     0.900000E-01   1.00800           0
      9051 MEMB     78       OSM      C13S     CTL2    -0.180000       12.0110           0
      9052 MEMB     78       OSM      H13S     HAL2     0.900000E-01   1.00800           0
      9053 MEMB     78       OSM      H13T     HAL2     0.900000E-01   1.00800           0
      9054 MEMB     78       OSM      C14S     CTL2    -0.180000       12.0110           0
      9055 MEMB     78       OSM      H14S     HAL2     0.900000E-01   1.00800           0
      9056 MEMB     78       OSM      H14T     HAL2     0.900000E-01   1.00800           0
      9057 MEMB     78       OSM      C15S     CTL2    -0.180000       12.0110           0
      9058 MEMB     78       OSM      H15S     HAL2     0.900000E-01   1.00800           0
      9059 MEMB     78       OSM      H15T     HAL2     0.900000E-01   1.00800           0
      9060 MEMB     78       OSM      C16S     CTL2    -0.180000       12.0110           0
      9061 MEMB     78       OSM      H16S     HAL2     0.900000E-01   1.00800           0
      9062 MEMB     78       OSM      H16T     HAL2     0.900000E-01   1.00800           0
      9063 MEMB     78       OSM      C17S     CTL2    -0.180000       12.0110           0
      9064 MEMB     78       OSM      H17S     HAL2     0.900000E-01   1.00800           0
      9065 MEMB     78       OSM      H17T     HAL2     0.900000E-01   1.00800           0
      9066 MEMB     78       OSM      C18S     CTL3    -0.270000       12.0110           0
      9067 MEMB     78       OSM      H18S     HAL3     0.900000E-01   1.00800           0
      9068 MEMB     78       OSM      H18T     HAL3     0.900000E-01   1.00800           0
      9069 MEMB     78       OSM      H18U     HAL3     0.900000E-01   1.00800           0
      9070 MEMB     78       OSM      C1F      C        0.550000       12.0110           0
      9071 MEMB     78       OSM      OF       O       -0.600000       15.9994           0
      9072 MEMB     78       OSM      C2F      CTL2    -0.700000E-01   12.0110           0
      9073 MEMB     78       OSM      H2F      HAL2     0.600000E-01   1.00800           0
      9074 MEMB     78       OSM      H2G      HAL2     0.600000E-01   1.00800           0
      9075 MEMB     78       OSM      C3F      CTL2    -0.180000       12.0110           0
      9076 MEMB     78       OSM      H3F      HAL2     0.900000E-01   1.00800           0
      9077 MEMB     78       OSM      H3G      HAL2     0.900000E-01   1.00800           0
      9078 MEMB     78       OSM      C4F      CTL2    -0.180000       12.0110           0
      9079 MEMB     78       OSM      H4F      HAL2     0.900000E-01   1.00800           0
      9080 MEMB     78       OSM      H4G      HAL2     0.900000E-01   1.00800           0
      9081 MEMB     78       OSM      C5F      CTL2    -0.180000       12.0110           0
      9082 MEMB     78       OSM      H5F      HAL2     0.900000E-01   1.00800           0
      9083 MEMB     78       OSM      H5G      HAL2     0.900000E-01   1.00800           0
      9084 MEMB     78       OSM      C6F      CTL2    -0.180000       12.0110           0
      9085 MEMB     78       OSM      H6F      HAL2     0.900000E-01   1.00800           0
      9086 MEMB     78       OSM      H6G      HAL2     0.900000E-01   1.00800           0
      9087 MEMB     78       OSM      C7F      CTL2    -0.180000       12.0110           0
      9088 MEMB     78       OSM      H7F      HAL2     0.900000E-01   1.00800           0
      9089 MEMB     78       OSM      H7G      HAL2     0.900000E-01   1.00800           0
      9090 MEMB     78       OSM      C8F      CTL2    -0.180000       12.0110           0
      9091 MEMB     78       OSM      H8F      HAL2     0.900000E-01   1.00800           0
      9092 MEMB     78       OSM      H8G      HAL2     0.900000E-01   1.00800           0
      9093 MEMB     78       OSM      C9F      CEL1    -0.150000       12.0110           0
      9094 MEMB     78       OSM      H9F      HEL1     0.150000       1.00800           0
      9095 MEMB     78       OSM      C10F     CEL1    -0.150000       12.0110           0
      9096 MEMB     78       OSM      H10F     HEL1     0.150000       1.00800           0
      9097 MEMB     78       OSM      C11F     CTL2    -0.180000       12.0110           0
      9098 MEMB     78       OSM      H11F     HAL2     0.900000E-01   1.00800           0
      9099 MEMB     78       OSM      H11G     HAL2     0.900000E-01   1.00800           0
      9100 MEMB     78       OSM      C12F     CTL2    -0.180000       12.0110           0
      9101 MEMB     78       OSM      H12F     HAL2     0.900000E-01   1.00800           0
      9102 MEMB     78       OSM      H12G     HAL2     0.900000E-01   1.00800           0
      9103 MEMB     78       OSM      C13F     CTL2    -0.180000       12.0110           0
      9104 MEMB     78       OSM      H13F     HAL2     0.900000E-01   1.00800           0
      9105 MEMB     78       OSM      H13G     HAL2     0.900000E-01   1.00800           0
      9106 MEMB     78       OSM      C14F     CTL2    -0.180000       12.0110           0
      9107 MEMB     78       OSM      H14F     HAL2     0.900000E-01   1.00800           0
      9108 MEMB     78       OSM      H14G     HAL2     0.900000E-01   1.00800           0
      9109 MEMB     78       OSM      C15F     CTL2    -0.180000       12.0110           0
      9110 MEMB     78       OSM      H15F     HAL2     0.900000E-01   1.00800           0
      9111 MEMB     78       OSM      H15G     HAL2     0.900000E-01   1.00800           0
      9112 MEMB     78       OSM      C16F     CTL2    -0.180000       12.0110           0
      9113 MEMB     78       OSM      H16F     HAL2     0.900000E-01   1.00800           0
      9114 MEMB     78       OSM      H16G     HAL2     0.900000E-01   1.00800           0
      9115 MEMB     78       OSM      C17F     CTL2    -0.180000       12.0110           0
      9116 MEMB     78       OSM      H17F     HAL2     0.900000E-01   1.00800           0
      9117 MEMB     78       OSM      H17G     HAL2     0.900000E-01   1.00800           0
      9118 MEMB     78       OSM      C18F     CTL3    -0.270000       12.0110           0
      9119 MEMB     78       OSM      H18F     HAL3     0.900000E-01   1.00800           0
      9120 MEMB     78       OSM      H18G     HAL3     0.900000E-01   1.00800           0
      9121 MEMB     78       OSM      H18H     HAL3     0.900000E-01   1.00800           0
      9122 MEMB     79       CHL1     C3       CRL1     0.140000       12.0110           0
      9123 MEMB     79       CHL1     H3       HGA1     0.900000E-01   1.00800           0
      9124 MEMB     79       CHL1     O3       OHL     -0.660000       15.9994           0
      9125 MEMB     79       CHL1     H3'      HOL      0.430000       1.00800           0
      9126 MEMB     79       CHL1     C4       CRL2    -0.180000       12.0110           0
      9127 MEMB     79       CHL1     H4A      HGA2     0.900000E-01   1.00800           0
      9128 MEMB     79       CHL1     H4B      HGA2     0.900000E-01   1.00800           0
      9129 MEMB     79       CHL1     C5       CEL1      0.00000       12.0110           0
      9130 MEMB     79       CHL1     C6       CEL1    -0.150000       12.0110           0
      9131 MEMB     79       CHL1     H6       HEL1     0.150000       1.00800           0
      9132 MEMB     79       CHL1     C7       CRL2    -0.180000       12.0110           0
      9133 MEMB     79       CHL1     H7A      HGA2     0.900000E-01   1.00800           0
      9134 MEMB     79       CHL1     H7B      HGA2     0.900000E-01   1.00800           0
      9135 MEMB     79       CHL1     C8       CRL1    -0.900000E-01   12.0110           0
      9136 MEMB     79       CHL1     H8       HGA1     0.900000E-01   1.00800           0
      9137 MEMB     79       CHL1     C14      CRL1    -0.900000E-01   12.0110           0
      9138 MEMB     79       CHL1     H14      HGA1     0.900000E-01   1.00800           0
      9139 MEMB     79       CHL1     C15      CRL2    -0.180000       12.0110           0
      9140 MEMB     79       CHL1     H15A     HGA2     0.900000E-01   1.00800           0
      9141 MEMB     79       CHL1     H15B     HGA2     0.900000E-01   1.00800           0
      9142 MEMB     79       CHL1     C16      CRL2    -0.180000       12.0110           0
      9143 MEMB     79       CHL1     H16A     HGA2     0.900000E-01   1.00800           0
      9144 MEMB     79       CHL1     H16B     HGA2     0.900000E-01   1.00800           0
      9145 MEMB     79       CHL1     C17      CRL1    -0.900000E-01   12.0110           0
      9146 MEMB     79       CHL1     H17      HGA1     0.900000E-01   1.00800           0
      9147 MEMB     79       CHL1     C13      CRL1      0.00000       12.0110           0
      9148 MEMB     79       CHL1     C18      CTL3    -0.270000       12.0110           0
      9149 MEMB     79       CHL1     H18A     HAL3     0.900000E-01   1.00800           0
      9150 MEMB     79       CHL1     H18B     HAL3     0.900000E-01   1.00800           0
      9151 MEMB     79       CHL1     H18C     HAL3     0.900000E-01   1.00800           0
      9152 MEMB     79       CHL1     C12      CRL2    -0.180000       12.0110           0
      9153 MEMB     79       CHL1     H12A     HGA2     0.900000E-01   1.00800           0
      9154 MEMB     79       CHL1     H12B     HGA2     0.900000E-01   1.00800           0
      9155 MEMB     79       CHL1     C11      CRL2    -0.180000       12.0110           0
      9156 MEMB     79       CHL1     H11A     HGA2     0.900000E-01   1.00800           0
      9157 MEMB     79       CHL1     H11B     HGA2     0.900000E-01   1.00800           0
      9158 MEMB     79       CHL1     C9       CRL1    -0.900000E-01   12.0110           0
      9159 MEMB     79       CHL1     H9       HGA1     0.900000E-01   1.00800           0
      9160 MEMB     79       CHL1     C10      CRL1      0.00000       12.0110           0
      9161 MEMB     79       CHL1     C19      CTL3    -0.270000       12.0110           0
      9162 MEMB     79       CHL1     H19A     HAL3     0.900000E-01   1.00800           0
      9163 MEMB     79       CHL1     H19B     HAL3     0.900000E-01   1.00800           0
      9164 MEMB     79       CHL1     H19C     HAL3     0.900000E-01   1.00800           0
      9165 MEMB     79       CHL1     C1       CRL2    -0.180000       12.0110           0
      9166 MEMB     79       CHL1     H1A      HGA2     0.900000E-01   1.00800           0
      9167 MEMB     79       CHL1     H1B      HGA2     0.900000E-01   1.00800           0
      9168 MEMB     79       CHL1     C2       CRL2    -0.180000       12.0110           0
      9169 MEMB     79       CHL1     H2A      HGA2     0.900000E-01   1.00800           0
      9170 MEMB     79       CHL1     H2B      HGA2     0.900000E-01   1.00800           0
      9171 MEMB     79       CHL1     C20      CTL1    -0.900000E-01   12.0110           0
      9172 MEMB     79       CHL1     H20      HAL1     0.900000E-01   1.00800           0
      9173 MEMB     79       CHL1     C21      CTL3    -0.270000       12.0110           0
      9174 MEMB     79       CHL1     H21A     HAL3     0.900000E-01   1.00800           0
      9175 MEMB     79       CHL1     H21B     HAL3     0.900000E-01   1.00800           0
      9176 MEMB     79       CHL1     H21C     HAL3     0.900000E-01   1.00800           0
      9177 MEMB     79       CHL1     C22      CTL2    -0.180000       12.0110           0
      9178 MEMB     79       CHL1     H22A     HAL2     0.900000E-01   1.00800           0
      9179 MEMB     79       CHL1     H22B     HAL2     0.900000E-01   1.00800           0
      9180 MEMB     79       CHL1     C23      CTL2    -0.180000       12.0110           0
      9181 MEMB     79       CHL1     H23A     HAL2     0.900000E-01   1.00800           0
      9182 MEMB     79       CHL1     H23B     HAL2     0.900000E-01   1.00800           0
      9183 MEMB     79       CHL1     C24      CTL2    -0.180000       12.0110           0
      9184 MEMB     79       CHL1     H24A     HAL2     0.900000E-01   1.00800           0
      9185 MEMB     79       CHL1     H24B     HAL2     0.900000E-01   1.00800           0
      9186 MEMB     79       CHL1     C25      CTL1    -0.900000E-01   12.0110           0
      9187 MEMB     79       CHL1     H25      HAL1     0.900000E-01   1.00800           0
      9188 MEMB     79       CHL1     C26      CTL3    -0.270000       12.0110           0
      9189 MEMB     79       CHL1     H26A     HAL3     0.900000E-01   1.00800           0
      9190 MEMB     79       CHL1     H26B     HAL3     0.900000E-01   1.00800           0
      9191 MEMB     79       CHL1     H26C     HAL3     0.900000E-01   1.00800           0
      9192 MEMB     79       CHL1     C27      CTL3    -0.270000       12.0110           0
      9193 MEMB     79       CHL1     H27A     HAL3     0.900000E-01   1.00800           0
      9194 MEMB     79       CHL1     H27B     HAL3     0.900000E-01   1.00800           0
      9195 MEMB     79       CHL1     H27C     HAL3     0.900000E-01   1.00800           0
      9196 MEMB     80       SAPE     N        NH3L    -0.300000       14.0070           0
      9197 MEMB     80       SAPE     HN1      HCL      0.330000       1.00800           0
      9198 MEMB     80       SAPE     HN2      HCL      0.330000       1.00800           0
      9199 MEMB     80       SAPE     HN3      HCL      0.330000       1.00800           0
      9200 MEMB     80       SAPE     C12      CTL2     0.130000       12.0110           0
      9201 MEMB     80       SAPE     H12A     HAL2     0.900000E-01   1.00800           0
      9202 MEMB     80       SAPE     H12B     HAL2     0.900000E-01   1.00800           0
      9203 MEMB     80       SAPE     C11      CTL2    -0.800000E-01   12.0110           0
      9204 MEMB     80       SAPE     H11A     HAL2     0.900000E-01   1.00800           0
      9205 MEMB     80       SAPE     H11B     HAL2     0.900000E-01   1.00800           0
      9206 MEMB     80       SAPE     P        PL        1.50000       30.9740           0
      9207 MEMB     80       SAPE     O13      O2L     -0.780000       15.9994           0
      9208 MEMB     80       SAPE     O14      O2L     -0.780000       15.9994           0
      9209 MEMB     80       SAPE     O12      OSLP    -0.570000       15.9994           0
      9210 MEMB     80       SAPE     O11      OSLP    -0.570000       15.9994           0
      9211 MEMB     80       SAPE     C1       CTL2    -0.800000E-01   12.0110           0
      9212 MEMB     80       SAPE     HA       HAL2     0.900000E-01   1.00800           0
      9213 MEMB     80       SAPE     HB       HAL2     0.900000E-01   1.00800           0
      9214 MEMB     80       SAPE     C2       CTL1     0.170000       12.0110           0
      9215 MEMB     80       SAPE     HS       HAL1     0.900000E-01   1.00800           0
      9216 MEMB     80       SAPE     O21      OSL     -0.490000       15.9994           0
      9217 MEMB     80       SAPE     C21      CL       0.900000       12.0110           0
      9218 MEMB     80       SAPE     O22      OBL     -0.630000       15.9994           0
      9219 MEMB     80       SAPE     C22      CTL2    -0.220000       12.0110           0
      9220 MEMB     80       SAPE     H2R      HAL2     0.900000E-01   1.00800           0
      9221 MEMB     80       SAPE     H2S      HAL2     0.900000E-01   1.00800           0
      9222 MEMB     80       SAPE     C3       CTL2     0.800000E-01   12.0110           0
      9223 MEMB     80       SAPE     HX       HAL2     0.900000E-01   1.00800           0
      9224 MEMB     80       SAPE     HY       HAL2     0.900000E-01   1.00800           0
      9225 MEMB     80       SAPE     O31      OSL     -0.490000       15.9994           0
      9226 MEMB     80       SAPE     C31      CL       0.900000       12.0110           0
      9227 MEMB     80       SAPE     O32      OBL     -0.630000       15.9994           0
      9228 MEMB     80       SAPE     C32      CTL2    -0.220000       12.0110           0
      9229 MEMB     80       SAPE     H2X      HAL2     0.900000E-01   1.00800           0
      9230 MEMB     80       SAPE     H2Y      HAL2     0.900000E-01   1.00800           0
      9231 MEMB     80       SAPE     C23      CTL2    -0.180000       12.0110           0
      9232 MEMB     80       SAPE     H3R      HAL2     0.900000E-01   1.00800           0
      9233 MEMB     80       SAPE     H3S      HAL2     0.900000E-01   1.00800           0
      9234 MEMB     80       SAPE     C24      CTL2    -0.180000       12.0110           0
      9235 MEMB     80       SAPE     H4R      HAL2     0.900000E-01   1.00800           0
      9236 MEMB     80       SAPE     H4S      HAL2     0.900000E-01   1.00800           0
      9237 MEMB     80       SAPE     C25      CEL1    -0.150000       12.0110           0
      9238 MEMB     80       SAPE     H5R      HEL1     0.150000       1.00800           0
      9239 MEMB     80       SAPE     C26      CEL1    -0.150000       12.0110           0
      9240 MEMB     80       SAPE     H6R      HEL1     0.150000       1.00800           0
      9241 MEMB     80       SAPE     C27      CTL2    -0.180000       12.0110           0
      9242 MEMB     80       SAPE     H7R      HAL2     0.900000E-01   1.00800           0
      9243 MEMB     80       SAPE     H7S      HAL2     0.900000E-01   1.00800           0
      9244 MEMB     80       SAPE     C28      CEL1    -0.150000       12.0110           0
      9245 MEMB     80       SAPE     H8R      HEL1     0.150000       1.00800           0
      9246 MEMB     80       SAPE     C29      CEL1    -0.150000       12.0110           0
      9247 MEMB     80       SAPE     H9R      HEL1     0.150000       1.00800           0
      9248 MEMB     80       SAPE     C210     CTL2    -0.180000       12.0110           0
      9249 MEMB     80       SAPE     H10R     HAL2     0.900000E-01   1.00800           0
      9250 MEMB     80       SAPE     H10S     HAL2     0.900000E-01   1.00800           0
      9251 MEMB     80       SAPE     C211     CEL1    -0.150000       12.0110           0
      9252 MEMB     80       SAPE     H11R     HEL1     0.150000       1.00800           0
      9253 MEMB     80       SAPE     C212     CEL1    -0.150000       12.0110           0
      9254 MEMB     80       SAPE     H12R     HEL1     0.150000       1.00800           0
      9255 MEMB     80       SAPE     C213     CTL2    -0.180000       12.0110           0
      9256 MEMB     80       SAPE     H13R     HAL2     0.900000E-01   1.00800           0
      9257 MEMB     80       SAPE     H13S     HAL2     0.900000E-01   1.00800           0
      9258 MEMB     80       SAPE     C214     CEL1    -0.150000       12.0110           0
      9259 MEMB     80       SAPE     H14R     HEL1     0.150000       1.00800           0
      9260 MEMB     80       SAPE     C215     CEL1    -0.150000       12.0110           0
      9261 MEMB     80       SAPE     H15R     HEL1     0.150000       1.00800           0
      9262 MEMB     80       SAPE     C216     CTL2    -0.180000       12.0110           0
      9263 MEMB     80       SAPE     H16R     HAL2     0.900000E-01   1.00800           0
      9264 MEMB     80       SAPE     H16S     HAL2     0.900000E-01   1.00800           0
      9265 MEMB     80       SAPE     C217     CTL2    -0.180000       12.0110           0
      9266 MEMB     80       SAPE     H17R     HAL2     0.900000E-01   1.00800           0
      9267 MEMB     80       SAPE     H17S     HAL2     0.900000E-01   1.00800           0
      9268 MEMB     80       SAPE     C218     CTL2    -0.180000       12.0110           0
      9269 MEMB     80       SAPE     H18R     HAL2     0.900000E-01   1.00800           0
      9270 MEMB     80       SAPE     H18S     HAL2     0.900000E-01   1.00800           0
      9271 MEMB     80       SAPE     C219     CTL2    -0.180000       12.0110           0
      9272 MEMB     80       SAPE     H19R     HAL2     0.900000E-01   1.00800           0
      9273 MEMB     80       SAPE     H19S     HAL2     0.900000E-01   1.00800           0
      9274 MEMB     80       SAPE     C220     CTL3    -0.270000       12.0110           0
      9275 MEMB     80       SAPE     H20R     HAL3     0.900000E-01   1.00800           0
      9276 MEMB     80       SAPE     H20S     HAL3     0.900000E-01   1.00800           0
      9277 MEMB     80       SAPE     H20T     HAL3     0.900000E-01   1.00800           0
      9278 MEMB     80       SAPE     C33      CTL2    -0.180000       12.0110           0
      9279 MEMB     80       SAPE     H3X      HAL2     0.900000E-01   1.00800           0
      9280 MEMB     80       SAPE     H3Y      HAL2     0.900000E-01   1.00800           0
      9281 MEMB     80       SAPE     C34      CTL2    -0.180000       12.0110           0
      9282 MEMB     80       SAPE     H4X      HAL2     0.900000E-01   1.00800           0
      9283 MEMB     80       SAPE     H4Y      HAL2     0.900000E-01   1.00800           0
      9284 MEMB     80       SAPE     C35      CTL2    -0.180000       12.0110           0
      9285 MEMB     80       SAPE     H5X      HAL2     0.900000E-01   1.00800           0
      9286 MEMB     80       SAPE     H5Y      HAL2     0.900000E-01   1.00800           0
      9287 MEMB     80       SAPE     C36      CTL2    -0.180000       12.0110           0
      9288 MEMB     80       SAPE     H6X      HAL2     0.900000E-01   1.00800           0
      9289 MEMB     80       SAPE     H6Y      HAL2     0.900000E-01   1.00800           0
      9290 MEMB     80       SAPE     C37      CTL2    -0.180000       12.0110           0
      9291 MEMB     80       SAPE     H7X      HAL2     0.900000E-01   1.00800           0
      9292 MEMB     80       SAPE     H7Y      HAL2     0.900000E-01   1.00800           0
      9293 MEMB     80       SAPE     C38      CTL2    -0.180000       12.0110           0
      9294 MEMB     80       SAPE     H8X      HAL2     0.900000E-01   1.00800           0
      9295 MEMB     80       SAPE     H8Y      HAL2     0.900000E-01   1.00800           0
      9296 MEMB     80       SAPE     C39      CTL2    -0.180000       12.0110           0
      9297 MEMB     80       SAPE     H9X      HAL2     0.900000E-01   1.00800           0
      9298 MEMB     80       SAPE     H9Y      HAL2     0.900000E-01   1.00800           0
      9299 MEMB     80       SAPE     C310     CTL2    -0.180000       12.0110           0
      9300 MEMB     80       SAPE     H10X     HAL2     0.900000E-01   1.00800           0
      9301 MEMB     80       SAPE     H10Y     HAL2     0.900000E-01   1.00800           0
      9302 MEMB     80       SAPE     C311     CTL2    -0.180000       12.0110           0
      9303 MEMB     80       SAPE     H11X     HAL2     0.900000E-01   1.00800           0
      9304 MEMB     80       SAPE     H11Y     HAL2     0.900000E-01   1.00800           0
      9305 MEMB     80       SAPE     C312     CTL2    -0.180000       12.0110           0
      9306 MEMB     80       SAPE     H12X     HAL2     0.900000E-01   1.00800           0
      9307 MEMB     80       SAPE     H12Y     HAL2     0.900000E-01   1.00800           0
      9308 MEMB     80       SAPE     C313     CTL2    -0.180000       12.0110           0
      9309 MEMB     80       SAPE     H13X     HAL2     0.900000E-01   1.00800           0
      9310 MEMB     80       SAPE     H13Y     HAL2     0.900000E-01   1.00800           0
      9311 MEMB     80       SAPE     C314     CTL2    -0.180000       12.0110           0
      9312 MEMB     80       SAPE     H14X     HAL2     0.900000E-01   1.00800           0
      9313 MEMB     80       SAPE     H14Y     HAL2     0.900000E-01   1.00800           0
      9314 MEMB     80       SAPE     C315     CTL2    -0.180000       12.0110           0
      9315 MEMB     80       SAPE     H15X     HAL2     0.900000E-01   1.00800           0
      9316 MEMB     80       SAPE     H15Y     HAL2     0.900000E-01   1.00800           0
      9317 MEMB     80       SAPE     C316     CTL2    -0.180000       12.0110           0
      9318 MEMB     80       SAPE     H16X     HAL2     0.900000E-01   1.00800           0
      9319 MEMB     80       SAPE     H16Y     HAL2     0.900000E-01   1.00800           0
      9320 MEMB     80       SAPE     C317     CTL2    -0.180000       12.0110           0
      9321 MEMB     80       SAPE     H17X     HAL2     0.900000E-01   1.00800           0
      9322 MEMB     80       SAPE     H17Y     HAL2     0.900000E-01   1.00800           0
      9323 MEMB     80       SAPE     C318     CTL3    -0.270000       12.0110           0
      9324 MEMB     80       SAPE     H18X     HAL3     0.900000E-01   1.00800           0
      9325 MEMB     80       SAPE     H18Y     HAL3     0.900000E-01   1.00800           0
      9326 MEMB     80       SAPE     H18Z     HAL3     0.900000E-01   1.00800           0
      9327 MEMB     81       SOPE     N        NH3L    -0.300000       14.0070           0
      9328 MEMB     81       SOPE     HN1      HCL      0.330000       1.00800           0
      9329 MEMB     81       SOPE     HN2      HCL      0.330000       1.00800           0
      9330 MEMB     81       SOPE     HN3      HCL      0.330000       1.00800           0
      9331 MEMB     81       SOPE     C12      CTL2     0.130000       12.0110           0
      9332 MEMB     81       SOPE     H12A     HAL2     0.900000E-01   1.00800           0
      9333 MEMB     81       SOPE     H12B     HAL2     0.900000E-01   1.00800           0
      9334 MEMB     81       SOPE     C11      CTL2    -0.800000E-01   12.0110           0
      9335 MEMB     81       SOPE     H11A     HAL2     0.900000E-01   1.00800           0
      9336 MEMB     81       SOPE     H11B     HAL2     0.900000E-01   1.00800           0
      9337 MEMB     81       SOPE     P        PL        1.50000       30.9740           0
      9338 MEMB     81       SOPE     O13      O2L     -0.780000       15.9994           0
      9339 MEMB     81       SOPE     O14      O2L     -0.780000       15.9994           0
      9340 MEMB     81       SOPE     O12      OSLP    -0.570000       15.9994           0
      9341 MEMB     81       SOPE     O11      OSLP    -0.570000       15.9994           0
      9342 MEMB     81       SOPE     C1       CTL2    -0.800000E-01   12.0110           0
      9343 MEMB     81       SOPE     HA       HAL2     0.900000E-01   1.00800           0
      9344 MEMB     81       SOPE     HB       HAL2     0.900000E-01   1.00800           0
      9345 MEMB     81       SOPE     C2       CTL1     0.170000       12.0110           0
      9346 MEMB     81       SOPE     HS       HAL1     0.900000E-01   1.00800           0
      9347 MEMB     81       SOPE     O21      OSL     -0.490000       15.9994           0
      9348 MEMB     81       SOPE     C21      CL       0.900000       12.0110           0
      9349 MEMB     81       SOPE     O22      OBL     -0.630000       15.9994           0
      9350 MEMB     81       SOPE     C22      CTL2    -0.220000       12.0110           0
      9351 MEMB     81       SOPE     H2R      HAL2     0.900000E-01   1.00800           0
      9352 MEMB     81       SOPE     H2S      HAL2     0.900000E-01   1.00800           0
      9353 MEMB     81       SOPE     C3       CTL2     0.800000E-01   12.0110           0
      9354 MEMB     81       SOPE     HX       HAL2     0.900000E-01   1.00800           0
      9355 MEMB     81       SOPE     HY       HAL2     0.900000E-01   1.00800           0
      9356 MEMB     81       SOPE     O31      OSL     -0.490000       15.9994           0
      9357 MEMB     81       SOPE     C31      CL       0.900000       12.0110           0
      9358 MEMB     81       SOPE     O32      OBL     -0.630000       15.9994           0
      9359 MEMB     81       SOPE     C32      CTL2    -0.220000       12.0110           0
      9360 MEMB     81       SOPE     H2X      HAL2     0.900000E-01   1.00800           0
      9361 MEMB     81       SOPE     H2Y      HAL2     0.900000E-01   1.00800           0
      9362 MEMB     81       SOPE     C23      CTL2    -0.180000       12.0110           0
      9363 MEMB     81       SOPE     H3R      HAL2     0.900000E-01   1.00800           0
      9364 MEMB     81       SOPE     H3S      HAL2     0.900000E-01   1.00800           0
      9365 MEMB     81       SOPE     C24      CTL2    -0.180000       12.0110           0
      9366 MEMB     81       SOPE     H4R      HAL2     0.900000E-01   1.00800           0
      9367 MEMB     81       SOPE     H4S      HAL2     0.900000E-01   1.00800           0
      9368 MEMB     81       SOPE     C25      CTL2    -0.180000       12.0110           0
      9369 MEMB     81       SOPE     H5R      HAL2     0.900000E-01   1.00800           0
      9370 MEMB     81       SOPE     H5S      HAL2     0.900000E-01   1.00800           0
      9371 MEMB     81       SOPE     C26      CTL2    -0.180000       12.0110           0
      9372 MEMB     81       SOPE     H6R      HAL2     0.900000E-01   1.00800           0
      9373 MEMB     81       SOPE     H6S      HAL2     0.900000E-01   1.00800           0
      9374 MEMB     81       SOPE     C27      CTL2    -0.180000       12.0110           0
      9375 MEMB     81       SOPE     H7R      HAL2     0.900000E-01   1.00800           0
      9376 MEMB     81       SOPE     H7S      HAL2     0.900000E-01   1.00800           0
      9377 MEMB     81       SOPE     C28      CTL2    -0.180000       12.0110           0
      9378 MEMB     81       SOPE     H8R      HAL2     0.900000E-01   1.00800           0
      9379 MEMB     81       SOPE     H8S      HAL2     0.900000E-01   1.00800           0
      9380 MEMB     81       SOPE     C29      CEL1    -0.150000       12.0110           0
      9381 MEMB     81       SOPE     H91      HEL1     0.150000       1.00800           0
      9382 MEMB     81       SOPE     C210     CEL1    -0.150000       12.0110           0
      9383 MEMB     81       SOPE     H101     HEL1     0.150000       1.00800           0
      9384 MEMB     81       SOPE     C211     CTL2    -0.180000       12.0110           0
      9385 MEMB     81       SOPE     H11R     HAL2     0.900000E-01   1.00800           0
      9386 MEMB     81       SOPE     H11S     HAL2     0.900000E-01   1.00800           0
      9387 MEMB     81       SOPE     C212     CTL2    -0.180000       12.0110           0
      9388 MEMB     81       SOPE     H12R     HAL2     0.900000E-01   1.00800           0
      9389 MEMB     81       SOPE     H12S     HAL2     0.900000E-01   1.00800           0
      9390 MEMB     81       SOPE     C213     CTL2    -0.180000       12.0110           0
      9391 MEMB     81       SOPE     H13R     HAL2     0.900000E-01   1.00800           0
      9392 MEMB     81       SOPE     H13S     HAL2     0.900000E-01   1.00800           0
      9393 MEMB     81       SOPE     C214     CTL2    -0.180000       12.0110           0
      9394 MEMB     81       SOPE     H14R     HAL2     0.900000E-01   1.00800           0
      9395 MEMB     81       SOPE     H14S     HAL2     0.900000E-01   1.00800           0
      9396 MEMB     81       SOPE     C215     CTL2    -0.180000       12.0110           0
      9397 MEMB     81       SOPE     H15R     HAL2     0.900000E-01   1.00800           0
      9398 MEMB     81       SOPE     H15S     HAL2     0.900000E-01   1.00800           0
      9399 MEMB     81       SOPE     C216     CTL2    -0.180000       12.0110           0
      9400 MEMB     81       SOPE     H16R     HAL2     0.900000E-01   1.00800           0
      9401 MEMB     81       SOPE     H16S     HAL2     0.900000E-01   1.00800           0
      9402 MEMB     81       SOPE     C217     CTL2    -0.180000       12.0110           0
      9403 MEMB     81       SOPE     H17R     HAL2     0.900000E-01   1.00800           0
      9404 MEMB     81       SOPE     H17S     HAL2     0.900000E-01   1.00800           0
      9405 MEMB     81       SOPE     C218     CTL3    -0.270000       12.0110           0
      9406 MEMB     81       SOPE     H18R     HAL3     0.900000E-01   1.00800           0
      9407 MEMB     81       SOPE     H18S     HAL3     0.900000E-01   1.00800           0
      9408 MEMB     81       SOPE     H18T     HAL3     0.900000E-01   1.00800           0
      9409 MEMB     81       SOPE     C33      CTL2    -0.180000       12.0110           0
      9410 MEMB     81       SOPE     H3X      HAL2     0.900000E-01   1.00800           0
      9411 MEMB     81       SOPE     H3Y      HAL2     0.900000E-01   1.00800           0
      9412 MEMB     81       SOPE     C34      CTL2    -0.180000       12.0110           0
      9413 MEMB     81       SOPE     H4X      HAL2     0.900000E-01   1.00800           0
      9414 MEMB     81       SOPE     H4Y      HAL2     0.900000E-01   1.00800           0
      9415 MEMB     81       SOPE     C35      CTL2    -0.180000       12.0110           0
      9416 MEMB     81       SOPE     H5X      HAL2     0.900000E-01   1.00800           0
      9417 MEMB     81       SOPE     H5Y      HAL2     0.900000E-01   1.00800           0
      9418 MEMB     81       SOPE     C36      CTL2    -0.180000       12.0110           0
      9419 MEMB     81       SOPE     H6X      HAL2     0.900000E-01   1.00800           0
      9420 MEMB     81       SOPE     H6Y      HAL2     0.900000E-01   1.00800           0
      9421 MEMB     81       SOPE     C37      CTL2    -0.180000       12.0110           0
      9422 MEMB     81       SOPE     H7X      HAL2     0.900000E-01   1.00800           0
      9423 MEMB     81       SOPE     H7Y      HAL2     0.900000E-01   1.00800           0
      9424 MEMB     81       SOPE     C38      CTL2    -0.180000       12.0110           0
      9425 MEMB     81       SOPE     H8X      HAL2     0.900000E-01   1.00800           0
      9426 MEMB     81       SOPE     H8Y      HAL2     0.900000E-01   1.00800           0
      9427 MEMB     81       SOPE     C39      CTL2    -0.180000       12.0110           0
      9428 MEMB     81       SOPE     H9X      HAL2     0.900000E-01   1.00800           0
      9429 MEMB     81       SOPE     H9Y      HAL2     0.900000E-01   1.00800           0
      9430 MEMB     81       SOPE     C310     CTL2    -0.180000       12.0110           0
      9431 MEMB     81       SOPE     H10X     HAL2     0.900000E-01   1.00800           0
      9432 MEMB     81       SOPE     H10Y     HAL2     0.900000E-01   1.00800           0
      9433 MEMB     81       SOPE     C311     CTL2    -0.180000       12.0110           0
      9434 MEMB     81       SOPE     H11X     HAL2     0.900000E-01   1.00800           0
      9435 MEMB     81       SOPE     H11Y     HAL2     0.900000E-01   1.00800           0
      9436 MEMB     81       SOPE     C312     CTL2    -0.180000       12.0110           0
      9437 MEMB     81       SOPE     H12X     HAL2     0.900000E-01   1.00800           0
      9438 MEMB     81       SOPE     H12Y     HAL2     0.900000E-01   1.00800           0
      9439 MEMB     81       SOPE     C313     CTL2    -0.180000       12.0110           0
      9440 MEMB     81       SOPE     H13X     HAL2     0.900000E-01   1.00800           0
      9441 MEMB     81       SOPE     H13Y     HAL2     0.900000E-01   1.00800           0
      9442 MEMB     81       SOPE     C314     CTL2    -0.180000       12.0110           0
      9443 MEMB     81       SOPE     H14X     HAL2     0.900000E-01   1.00800           0
      9444 MEMB     81       SOPE     H14Y     HAL2     0.900000E-01   1.00800           0
      9445 MEMB     81       SOPE     C315     CTL2    -0.180000       12.0110           0
      9446 MEMB     81       SOPE     H15X     HAL2     0.900000E-01   1.00800           0
      9447 MEMB     81       SOPE     H15Y     HAL2     0.900000E-01   1.00800           0
      9448 MEMB     81       SOPE     C316     CTL2    -0.180000       12.0110           0
      9449 MEMB     81       SOPE     H16X     HAL2     0.900000E-01   1.00800           0
      9450 MEMB     81       SOPE     H16Y     HAL2     0.900000E-01   1.00800           0
      9451 MEMB     81       SOPE     C317     CTL2    -0.180000       12.0110           0
      9452 MEMB     81       SOPE     H17X     HAL2     0.900000E-01   1.00800           0
      9453 MEMB     81       SOPE     H17Y     HAL2     0.900000E-01   1.00800           0
      9454 MEMB     81       SOPE     C318     CTL3    -0.270000       12.0110           0
      9455 MEMB     81       SOPE     H18X     HAL3     0.900000E-01   1.00800           0
      9456 MEMB     81       SOPE     H18Y     HAL3     0.900000E-01   1.00800           0
      9457 MEMB     81       SOPE     H18Z     HAL3     0.900000E-01   1.00800           0
      9458 MEMB     82       POPC     N        NTL     -0.600000       14.0070           0
      9459 MEMB     82       POPC     C12      CTL2    -0.100000       12.0110           0
      9460 MEMB     82       POPC     H12A     HL       0.250000       1.00800           0
      9461 MEMB     82       POPC     H12B     HL       0.250000       1.00800           0
      9462 MEMB     82       POPC     C13      CTL5    -0.350000       12.0110           0
      9463 MEMB     82       POPC     H13A     HL       0.250000       1.00800           0
      9464 MEMB     82       POPC     H13B     HL       0.250000       1.00800           0
      9465 MEMB     82       POPC     H13C     HL       0.250000       1.00800           0
      9466 MEMB     82       POPC     C14      CTL5    -0.350000       12.0110           0
      9467 MEMB     82       POPC     H14A     HL       0.250000       1.00800           0
      9468 MEMB     82       POPC     H14B     HL       0.250000       1.00800           0
      9469 MEMB     82       POPC     H14C     HL       0.250000       1.00800           0
      9470 MEMB     82       POPC     C15      CTL5    -0.350000       12.0110           0
      9471 MEMB     82       POPC     H15A     HL       0.250000       1.00800           0
      9472 MEMB     82       POPC     H15B     HL       0.250000       1.00800           0
      9473 MEMB     82       POPC     H15C     HL       0.250000       1.00800           0
      9474 MEMB     82       POPC     C11      CTL2    -0.800000E-01   12.0110           0
      9475 MEMB     82       POPC     H11A     HAL2     0.900000E-01   1.00800           0
      9476 MEMB     82       POPC     H11B     HAL2     0.900000E-01   1.00800           0
      9477 MEMB     82       POPC     P        PL        1.50000       30.9740           0
      9478 MEMB     82       POPC     O13      O2L     -0.780000       15.9994           0
      9479 MEMB     82       POPC     O14      O2L     -0.780000       15.9994           0
      9480 MEMB     82       POPC     O12      OSLP    -0.570000       15.9994           0
      9481 MEMB     82       POPC     O11      OSLP    -0.570000       15.9994           0
      9482 MEMB     82       POPC     C1       CTL2    -0.800000E-01   12.0110           0
      9483 MEMB     82       POPC     HA       HAL2     0.900000E-01   1.00800           0
      9484 MEMB     82       POPC     HB       HAL2     0.900000E-01   1.00800           0
      9485 MEMB     82       POPC     C2       CTL1     0.170000       12.0110           0
      9486 MEMB     82       POPC     HS       HAL1     0.900000E-01   1.00800           0
      9487 MEMB     82       POPC     O21      OSL     -0.490000       15.9994           0
      9488 MEMB     82       POPC     C21      CL       0.900000       12.0110           0
      9489 MEMB     82       POPC     O22      OBL     -0.630000       15.9994           0
      9490 MEMB     82       POPC     C22      CTL2    -0.220000       12.0110           0
      9491 MEMB     82       POPC     H2R      HAL2     0.900000E-01   1.00800           0
      9492 MEMB     82       POPC     H2S      HAL2     0.900000E-01   1.00800           0
      9493 MEMB     82       POPC     C3       CTL2     0.800000E-01   12.0110           0
      9494 MEMB     82       POPC     HX       HAL2     0.900000E-01   1.00800           0
      9495 MEMB     82       POPC     HY       HAL2     0.900000E-01   1.00800           0
      9496 MEMB     82       POPC     O31      OSL     -0.490000       15.9994           0
      9497 MEMB     82       POPC     C31      CL       0.900000       12.0110           0
      9498 MEMB     82       POPC     O32      OBL     -0.630000       15.9994           0
      9499 MEMB     82       POPC     C32      CTL2    -0.220000       12.0110           0
      9500 MEMB     82       POPC     H2X      HAL2     0.900000E-01   1.00800           0
      9501 MEMB     82       POPC     H2Y      HAL2     0.900000E-01   1.00800           0
      9502 MEMB     82       POPC     C23      CTL2    -0.180000       12.0110           0
      9503 MEMB     82       POPC     H3R      HAL2     0.900000E-01   1.00800           0
      9504 MEMB     82       POPC     H3S      HAL2     0.900000E-01   1.00800           0
      9505 MEMB     82       POPC     C24      CTL2    -0.180000       12.0110           0
      9506 MEMB     82       POPC     H4R      HAL2     0.900000E-01   1.00800           0
      9507 MEMB     82       POPC     H4S      HAL2     0.900000E-01   1.00800           0
      9508 MEMB     82       POPC     C25      CTL2    -0.180000       12.0110           0
      9509 MEMB     82       POPC     H5R      HAL2     0.900000E-01   1.00800           0
      9510 MEMB     82       POPC     H5S      HAL2     0.900000E-01   1.00800           0
      9511 MEMB     82       POPC     C26      CTL2    -0.180000       12.0110           0
      9512 MEMB     82       POPC     H6R      HAL2     0.900000E-01   1.00800           0
      9513 MEMB     82       POPC     H6S      HAL2     0.900000E-01   1.00800           0
      9514 MEMB     82       POPC     C27      CTL2    -0.180000       12.0110           0
      9515 MEMB     82       POPC     H7R      HAL2     0.900000E-01   1.00800           0
      9516 MEMB     82       POPC     H7S      HAL2     0.900000E-01   1.00800           0
      9517 MEMB     82       POPC     C28      CTL2    -0.180000       12.0110           0
      9518 MEMB     82       POPC     H8R      HAL2     0.900000E-01   1.00800           0
      9519 MEMB     82       POPC     H8S      HAL2     0.900000E-01   1.00800           0
      9520 MEMB     82       POPC     C29      CEL1    -0.150000       12.0110           0
      9521 MEMB     82       POPC     H91      HEL1     0.150000       1.00800           0
      9522 MEMB     82       POPC     C210     CEL1    -0.150000       12.0110           0
      9523 MEMB     82       POPC     H101     HEL1     0.150000       1.00800           0
      9524 MEMB     82       POPC     C211     CTL2    -0.180000       12.0110           0
      9525 MEMB     82       POPC     H11R     HAL2     0.900000E-01   1.00800           0
      9526 MEMB     82       POPC     H11S     HAL2     0.900000E-01   1.00800           0
      9527 MEMB     82       POPC     C212     CTL2    -0.180000       12.0110           0
      9528 MEMB     82       POPC     H12R     HAL2     0.900000E-01   1.00800           0
      9529 MEMB     82       POPC     H12S     HAL2     0.900000E-01   1.00800           0
      9530 MEMB     82       POPC     C213     CTL2    -0.180000       12.0110           0
      9531 MEMB     82       POPC     H13R     HAL2     0.900000E-01   1.00800           0
      9532 MEMB     82       POPC     H13S     HAL2     0.900000E-01   1.00800           0
      9533 MEMB     82       POPC     C214     CTL2    -0.180000       12.0110           0
      9534 MEMB     82       POPC     H14R     HAL2     0.900000E-01   1.00800           0
      9535 MEMB     82       POPC     H14S     HAL2     0.900000E-01   1.00800           0
      9536 MEMB     82       POPC     C215     CTL2    -0.180000       12.0110           0
      9537 MEMB     82       POPC     H15R     HAL2     0.900000E-01   1.00800           0
      9538 MEMB     82       POPC     H15S     HAL2     0.900000E-01   1.00800           0
      9539 MEMB     82       POPC     C216     CTL2    -0.180000       12.0110           0
      9540 MEMB     82       POPC     H16R     HAL2     0.900000E-01   1.00800           0
      9541 MEMB     82       POPC     H16S     HAL2     0.900000E-01   1.00800           0
      9542 MEMB     82       POPC     C217     CTL2    -0.180000       12.0110           0
      9543 MEMB     82       POPC     H17R     HAL2     0.900000E-01   1.00800           0
      9544 MEMB     82       POPC     H17S     HAL2     0.900000E-01   1.00800           0
      9545 MEMB     82       POPC     C218     CTL3    -0.270000       12.0110           0
      9546 MEMB     82       POPC     H18R     HAL3     0.900000E-01   1.00800           0
      9547 MEMB     82       POPC     H18S     HAL3     0.900000E-01   1.00800           0
      9548 MEMB     82       POPC     H18T     HAL3     0.900000E-01   1.00800           0
      9549 MEMB     82       POPC     C33      CTL2    -0.180000       12.0110           0
      9550 MEMB     82       POPC     H3X      HAL2     0.900000E-01   1.00800           0
      9551 MEMB     82       POPC     H3Y      HAL2     0.900000E-01   1.00800           0
      9552 MEMB     82       POPC     C34      CTL2    -0.180000       12.0110           0
      9553 MEMB     82       POPC     H4X      HAL2     0.900000E-01   1.00800           0
      9554 MEMB     82       POPC     H4Y      HAL2     0.900000E-01   1.00800           0
      9555 MEMB     82       POPC     C35      CTL2    -0.180000       12.0110           0
      9556 MEMB     82       POPC     H5X      HAL2     0.900000E-01   1.00800           0
      9557 MEMB     82       POPC     H5Y      HAL2     0.900000E-01   1.00800           0
      9558 MEMB     82       POPC     C36      CTL2    -0.180000       12.0110           0
      9559 MEMB     82       POPC     H6X      HAL2     0.900000E-01   1.00800           0
      9560 MEMB     82       POPC     H6Y      HAL2     0.900000E-01   1.00800           0
      9561 MEMB     82       POPC     C37      CTL2    -0.180000       12.0110           0
      9562 MEMB     82       POPC     H7X      HAL2     0.900000E-01   1.00800           0
      9563 MEMB     82       POPC     H7Y      HAL2     0.900000E-01   1.00800           0
      9564 MEMB     82       POPC     C38      CTL2    -0.180000       12.0110           0
      9565 MEMB     82       POPC     H8X      HAL2     0.900000E-01   1.00800           0
      9566 MEMB     82       POPC     H8Y      HAL2     0.900000E-01   1.00800           0
      9567 MEMB     82       POPC     C39      CTL2    -0.180000       12.0110           0
      9568 MEMB     82       POPC     H9X      HAL2     0.900000E-01   1.00800           0
      9569 MEMB     82       POPC     H9Y      HAL2     0.900000E-01   1.00800           0
      9570 MEMB     82       POPC     C310     CTL2    -0.180000       12.0110           0
      9571 MEMB     82       POPC     H10X     HAL2     0.900000E-01   1.00800           0
      9572 MEMB     82       POPC     H10Y     HAL2     0.900000E-01   1.00800           0
      9573 MEMB     82       POPC     C311     CTL2    -0.180000       12.0110           0
      9574 MEMB     82       POPC     H11X     HAL2     0.900000E-01   1.00800           0
      9575 MEMB     82       POPC     H11Y     HAL2     0.900000E-01   1.00800           0
      9576 MEMB     82       POPC     C312     CTL2    -0.180000       12.0110           0
      9577 MEMB     82       POPC     H12X     HAL2     0.900000E-01   1.00800           0
      9578 MEMB     82       POPC     H12Y     HAL2     0.900000E-01   1.00800           0
      9579 MEMB     82       POPC     C313     CTL2    -0.180000       12.0110           0
      9580 MEMB     82       POPC     H13X     HAL2     0.900000E-01   1.00800           0
      9581 MEMB     82       POPC     H13Y     HAL2     0.900000E-01   1.00800           0
      9582 MEMB     82       POPC     C314     CTL2    -0.180000       12.0110           0
      9583 MEMB     82       POPC     H14X     HAL2     0.900000E-01   1.00800           0
      9584 MEMB     82       POPC     H14Y     HAL2     0.900000E-01   1.00800           0
      9585 MEMB     82       POPC     C315     CTL2    -0.180000       12.0110           0
      9586 MEMB     82       POPC     H15X     HAL2     0.900000E-01   1.00800           0
      9587 MEMB     82       POPC     H15Y     HAL2     0.900000E-01   1.00800           0
      9588 MEMB     82       POPC     C316     CTL3    -0.270000       12.0110           0
      9589 MEMB     82       POPC     H16X     HAL3     0.900000E-01   1.00800           0
      9590 MEMB     82       POPC     H16Y     HAL3     0.900000E-01   1.00800           0
      9591 MEMB     82       POPC     H16Z     HAL3     0.900000E-01   1.00800           0
      9592 MEMB     83       SOPE     N        NH3L    -0.300000       14.0070           0
      9593 MEMB     83       SOPE     HN1      HCL      0.330000       1.00800           0
      9594 MEMB     83       SOPE     HN2      HCL      0.330000       1.00800           0
      9595 MEMB     83       SOPE     HN3      HCL      0.330000       1.00800           0
      9596 MEMB     83       SOPE     C12      CTL2     0.130000       12.0110           0
      9597 MEMB     83       SOPE     H12A     HAL2     0.900000E-01   1.00800           0
      9598 MEMB     83       SOPE     H12B     HAL2     0.900000E-01   1.00800           0
      9599 MEMB     83       SOPE     C11      CTL2    -0.800000E-01   12.0110           0
      9600 MEMB     83       SOPE     H11A     HAL2     0.900000E-01   1.00800           0
      9601 MEMB     83       SOPE     H11B     HAL2     0.900000E-01   1.00800           0
      9602 MEMB     83       SOPE     P        PL        1.50000       30.9740           0
      9603 MEMB     83       SOPE     O13      O2L     -0.780000       15.9994           0
      9604 MEMB     83       SOPE     O14      O2L     -0.780000       15.9994           0
      9605 MEMB     83       SOPE     O12      OSLP    -0.570000       15.9994           0
      9606 MEMB     83       SOPE     O11      OSLP    -0.570000       15.9994           0
      9607 MEMB     83       SOPE     C1       CTL2    -0.800000E-01   12.0110           0
      9608 MEMB     83       SOPE     HA       HAL2     0.900000E-01   1.00800           0
      9609 MEMB     83       SOPE     HB       HAL2     0.900000E-01   1.00800           0
      9610 MEMB     83       SOPE     C2       CTL1     0.170000       12.0110           0
      9611 MEMB     83       SOPE     HS       HAL1     0.900000E-01   1.00800           0
      9612 MEMB     83       SOPE     O21      OSL     -0.490000       15.9994           0
      9613 MEMB     83       SOPE     C21      CL       0.900000       12.0110           0
      9614 MEMB     83       SOPE     O22      OBL     -0.630000       15.9994           0
      9615 MEMB     83       SOPE     C22      CTL2    -0.220000       12.0110           0
      9616 MEMB     83       SOPE     H2R      HAL2     0.900000E-01   1.00800           0
      9617 MEMB     83       SOPE     H2S      HAL2     0.900000E-01   1.00800           0
      9618 MEMB     83       SOPE     C3       CTL2     0.800000E-01   12.0110           0
      9619 MEMB     83       SOPE     HX       HAL2     0.900000E-01   1.00800           0
      9620 MEMB     83       SOPE     HY       HAL2     0.900000E-01   1.00800           0
      9621 MEMB     83       SOPE     O31      OSL     -0.490000       15.9994           0
      9622 MEMB     83       SOPE     C31      CL       0.900000       12.0110           0
      9623 MEMB     83       SOPE     O32      OBL     -0.630000       15.9994           0
      9624 MEMB     83       SOPE     C32      CTL2    -0.220000       12.0110           0
      9625 MEMB     83       SOPE     H2X      HAL2     0.900000E-01   1.00800           0
      9626 MEMB     83       SOPE     H2Y      HAL2     0.900000E-01   1.00800           0
      9627 MEMB     83       SOPE     C23      CTL2    -0.180000       12.0110           0
      9628 MEMB     83       SOPE     H3R      HAL2     0.900000E-01   1.00800           0
      9629 MEMB     83       SOPE     H3S      HAL2     0.900000E-01   1.00800           0
      9630 MEMB     83       SOPE     C24      CTL2    -0.180000       12.0110           0
      9631 MEMB     83       SOPE     H4R      HAL2     0.900000E-01   1.00800           0
      9632 MEMB     83       SOPE     H4S      HAL2     0.900000E-01   1.00800           0
      9633 MEMB     83       SOPE     C25      CTL2    -0.180000       12.0110           0
      9634 MEMB     83       SOPE     H5R      HAL2     0.900000E-01   1.00800           0
      9635 MEMB     83       SOPE     H5S      HAL2     0.900000E-01   1.00800           0
      9636 MEMB     83       SOPE     C26      CTL2    -0.180000       12.0110           0
      9637 MEMB     83       SOPE     H6R      HAL2     0.900000E-01   1.00800           0
      9638 MEMB     83       SOPE     H6S      HAL2     0.900000E-01   1.00800           0
      9639 MEMB     83       SOPE     C27      CTL2    -0.180000       12.0110           0
      9640 MEMB     83       SOPE     H7R      HAL2     0.900000E-01   1.00800           0
      9641 MEMB     83       SOPE     H7S      HAL2     0.900000E-01   1.00800           0
      9642 MEMB     83       SOPE     C28      CTL2    -0.180000       12.0110           0
      9643 MEMB     83       SOPE     H8R      HAL2     0.900000E-01   1.00800           0
      9644 MEMB     83       SOPE     H8S      HAL2     0.900000E-01   1.00800           0
      9645 MEMB     83       SOPE     C29      CEL1    -0.150000       12.0110           0
      9646 MEMB     83       SOPE     H91      HEL1     0.150000       1.00800           0
      9647 MEMB     83       SOPE     C210     CEL1    -0.150000       12.0110           0
      9648 MEMB     83       SOPE     H101     HEL1     0.150000       1.00800           0
      9649 MEMB     83       SOPE     C211     CTL2    -0.180000       12.0110           0
      9650 MEMB     83       SOPE     H11R     HAL2     0.900000E-01   1.00800           0
      9651 MEMB     83       SOPE     H11S     HAL2     0.900000E-01   1.00800           0
      9652 MEMB     83       SOPE     C212     CTL2    -0.180000       12.0110           0
      9653 MEMB     83       SOPE     H12R     HAL2     0.900000E-01   1.00800           0
      9654 MEMB     83       SOPE     H12S     HAL2     0.900000E-01   1.00800           0
      9655 MEMB     83       SOPE     C213     CTL2    -0.180000       12.0110           0
      9656 MEMB     83       SOPE     H13R     HAL2     0.900000E-01   1.00800           0
      9657 MEMB     83       SOPE     H13S     HAL2     0.900000E-01   1.00800           0
      9658 MEMB     83       SOPE     C214     CTL2    -0.180000       12.0110           0
      9659 MEMB     83       SOPE     H14R     HAL2     0.900000E-01   1.00800           0
      9660 MEMB     83       SOPE     H14S     HAL2     0.900000E-01   1.00800           0
      9661 MEMB     83       SOPE     C215     CTL2    -0.180000       12.0110           0
      9662 MEMB     83       SOPE     H15R     HAL2     0.900000E-01   1.00800           0
      9663 MEMB     83       SOPE     H15S     HAL2     0.900000E-01   1.00800           0
      9664 MEMB     83       SOPE     C216     CTL2    -0.180000       12.0110           0
      9665 MEMB     83       SOPE     H16R     HAL2     0.900000E-01   1.00800           0
      9666 MEMB     83       SOPE     H16S     HAL2     0.900000E-01   1.00800           0
      9667 MEMB     83       SOPE     C217     CTL2    -0.180000       12.0110           0
      9668 MEMB     83       SOPE     H17R     HAL2     0.900000E-01   1.00800           0
      9669 MEMB     83       SOPE     H17S     HAL2     0.900000E-01   1.00800           0
      9670 MEMB     83       SOPE     C218     CTL3    -0.270000       12.0110           0
      9671 MEMB     83       SOPE     H18R     HAL3     0.900000E-01   1.00800           0
      9672 MEMB     83       SOPE     H18S     HAL3     0.900000E-01   1.00800           0
      9673 MEMB     83       SOPE     H18T     HAL3     0.900000E-01   1.00800           0
      9674 MEMB     83       SOPE     C33      CTL2    -0.180000       12.0110           0
      9675 MEMB     83       SOPE     H3X      HAL2     0.900000E-01   1.00800           0
      9676 MEMB     83       SOPE     H3Y      HAL2     0.900000E-01   1.00800           0
      9677 MEMB     83       SOPE     C34      CTL2    -0.180000       12.0110           0
      9678 MEMB     83       SOPE     H4X      HAL2     0.900000E-01   1.00800           0
      9679 MEMB     83       SOPE     H4Y      HAL2     0.900000E-01   1.00800           0
      9680 MEMB     83       SOPE     C35      CTL2    -0.180000       12.0110           0
      9681 MEMB     83       SOPE     H5X      HAL2     0.900000E-01   1.00800           0
      9682 MEMB     83       SOPE     H5Y      HAL2     0.900000E-01   1.00800           0
      9683 MEMB     83       SOPE     C36      CTL2    -0.180000       12.0110           0
      9684 MEMB     83       SOPE     H6X      HAL2     0.900000E-01   1.00800           0
      9685 MEMB     83       SOPE     H6Y      HAL2     0.900000E-01   1.00800           0
      9686 MEMB     83       SOPE     C37      CTL2    -0.180000       12.0110           0
      9687 MEMB     83       SOPE     H7X      HAL2     0.900000E-01   1.00800           0
      9688 MEMB     83       SOPE     H7Y      HAL2     0.900000E-01   1.00800           0
      9689 MEMB     83       SOPE     C38      CTL2    -0.180000       12.0110           0
      9690 MEMB     83       SOPE     H8X      HAL2     0.900000E-01   1.00800           0
      9691 MEMB     83       SOPE     H8Y      HAL2     0.900000E-01   1.00800           0
      9692 MEMB     83       SOPE     C39      CTL2    -0.180000       12.0110           0
      9693 MEMB     83       SOPE     H9X      HAL2     0.900000E-01   1.00800           0
      9694 MEMB     83       SOPE     H9Y      HAL2     0.900000E-01   1.00800           0
      9695 MEMB     83       SOPE     C310     CTL2    -0.180000       12.0110           0
      9696 MEMB     83       SOPE     H10X     HAL2     0.900000E-01   1.00800           0
      9697 MEMB     83       SOPE     H10Y     HAL2     0.900000E-01   1.00800           0
      9698 MEMB     83       SOPE     C311     CTL2    -0.180000       12.0110           0
      9699 MEMB     83       SOPE     H11X     HAL2     0.900000E-01   1.00800           0
      9700 MEMB     83       SOPE     H11Y     HAL2     0.900000E-01   1.00800           0
      9701 MEMB     83       SOPE     C312     CTL2    -0.180000       12.0110           0
      9702 MEMB     83       SOPE     H12X     HAL2     0.900000E-01   1.00800           0
      9703 MEMB     83       SOPE     H12Y     HAL2     0.900000E-01   1.00800           0
      9704 MEMB     83       SOPE     C313     CTL2    -0.180000       12.0110           0
      9705 MEMB     83       SOPE     H13X     HAL2     0.900000E-01   1.00800           0
      9706 MEMB     83       SOPE     H13Y     HAL2     0.900000E-01   1.00800           0
      9707 MEMB     83       SOPE     C314     CTL2    -0.180000       12.0110           0
      9708 MEMB     83       SOPE     H14X     HAL2     0.900000E-01   1.00800           0
      9709 MEMB     83       SOPE     H14Y     HAL2     0.900000E-01   1.00800           0
      9710 MEMB     83       SOPE     C315     CTL2    -0.180000       12.0110           0
      9711 MEMB     83       SOPE     H15X     HAL2     0.900000E-01   1.00800           0
      9712 MEMB     83       SOPE     H15Y     HAL2     0.900000E-01   1.00800           0
      9713 MEMB     83       SOPE     C316     CTL2    -0.180000       12.0110           0
      9714 MEMB     83       SOPE     H16X     HAL2     0.900000E-01   1.00800           0
      9715 MEMB     83       SOPE     H16Y     HAL2     0.900000E-01   1.00800           0
      9716 MEMB     83       SOPE     C317     CTL2    -0.180000       12.0110           0
      9717 MEMB     83       SOPE     H17X     HAL2     0.900000E-01   1.00800           0
      9718 MEMB     83       SOPE     H17Y     HAL2     0.900000E-01   1.00800           0
      9719 MEMB     83       SOPE     C318     CTL3    -0.270000       12.0110           0
      9720 MEMB     83       SOPE     H18X     HAL3     0.900000E-01   1.00800           0
      9721 MEMB     83       SOPE     H18Y     HAL3     0.900000E-01   1.00800           0
      9722 MEMB     83       SOPE     H18Z     HAL3     0.900000E-01   1.00800           0
      9723 MEMB     84       SAPC     N        NTL     -0.600000       14.0070           0
      9724 MEMB     84       SAPC     C12      CTL2    -0.100000       12.0110           0
      9725 MEMB     84       SAPC     H12A     HL       0.250000       1.00800           0
      9726 MEMB     84       SAPC     H12B     HL       0.250000       1.00800           0
      9727 MEMB     84       SAPC     C13      CTL5    -0.350000       12.0110           0
      9728 MEMB     84       SAPC     H13A     HL       0.250000       1.00800           0
      9729 MEMB     84       SAPC     H13B     HL       0.250000       1.00800           0
      9730 MEMB     84       SAPC     H13C     HL       0.250000       1.00800           0
      9731 MEMB     84       SAPC     C14      CTL5    -0.350000       12.0110           0
      9732 MEMB     84       SAPC     H14A     HL       0.250000       1.00800           0
      9733 MEMB     84       SAPC     H14B     HL       0.250000       1.00800           0
      9734 MEMB     84       SAPC     H14C     HL       0.250000       1.00800           0
      9735 MEMB     84       SAPC     C15      CTL5    -0.350000       12.0110           0
      9736 MEMB     84       SAPC     H15A     HL       0.250000       1.00800           0
      9737 MEMB     84       SAPC     H15B     HL       0.250000       1.00800           0
      9738 MEMB     84       SAPC     H15C     HL       0.250000       1.00800           0
      9739 MEMB     84       SAPC     C11      CTL2    -0.800000E-01   12.0110           0
      9740 MEMB     84       SAPC     H11A     HAL2     0.900000E-01   1.00800           0
      9741 MEMB     84       SAPC     H11B     HAL2     0.900000E-01   1.00800           0
      9742 MEMB     84       SAPC     P        PL        1.50000       30.9740           0
      9743 MEMB     84       SAPC     O13      O2L     -0.780000       15.9994           0
      9744 MEMB     84       SAPC     O14      O2L     -0.780000       15.9994           0
      9745 MEMB     84       SAPC     O12      OSLP    -0.570000       15.9994           0
      9746 MEMB     84       SAPC     O11      OSLP    -0.570000       15.9994           0
      9747 MEMB     84       SAPC     C1       CTL2    -0.800000E-01   12.0110           0
      9748 MEMB     84       SAPC     HA       HAL2     0.900000E-01   1.00800           0
      9749 MEMB     84       SAPC     HB       HAL2     0.900000E-01   1.00800           0
      9750 MEMB     84       SAPC     C2       CTL1     0.170000       12.0110           0
      9751 MEMB     84       SAPC     HS       HAL1     0.900000E-01   1.00800           0
      9752 MEMB     84       SAPC     O21      OSL     -0.490000       15.9994           0
      9753 MEMB     84       SAPC     C21      CL       0.900000       12.0110           0
      9754 MEMB     84       SAPC     O22      OBL     -0.630000       15.9994           0
      9755 MEMB     84       SAPC     C22      CTL2    -0.220000       12.0110           0
      9756 MEMB     84       SAPC     H2R      HAL2     0.900000E-01   1.00800           0
      9757 MEMB     84       SAPC     H2S      HAL2     0.900000E-01   1.00800           0
      9758 MEMB     84       SAPC     C3       CTL2     0.800000E-01   12.0110           0
      9759 MEMB     84       SAPC     HX       HAL2     0.900000E-01   1.00800           0
      9760 MEMB     84       SAPC     HY       HAL2     0.900000E-01   1.00800           0
      9761 MEMB     84       SAPC     O31      OSL     -0.490000       15.9994           0
      9762 MEMB     84       SAPC     C31      CL       0.900000       12.0110           0
      9763 MEMB     84       SAPC     O32      OBL     -0.630000       15.9994           0
      9764 MEMB     84       SAPC     C32      CTL2    -0.220000       12.0110           0
      9765 MEMB     84       SAPC     H2X      HAL2     0.900000E-01   1.00800           0
      9766 MEMB     84       SAPC     H2Y      HAL2     0.900000E-01   1.00800           0
      9767 MEMB     84       SAPC     C23      CTL2    -0.180000       12.0110           0
      9768 MEMB     84       SAPC     H3R      HAL2     0.900000E-01   1.00800           0
      9769 MEMB     84       SAPC     H3S      HAL2     0.900000E-01   1.00800           0
      9770 MEMB     84       SAPC     C24      CTL2    -0.180000       12.0110           0
      9771 MEMB     84       SAPC     H4R      HAL2     0.900000E-01   1.00800           0
      9772 MEMB     84       SAPC     H4S      HAL2     0.900000E-01   1.00800           0
      9773 MEMB     84       SAPC     C25      CEL1    -0.150000       12.0110           0
      9774 MEMB     84       SAPC     H5R      HEL1     0.150000       1.00800           0
      9775 MEMB     84       SAPC     C26      CEL1    -0.150000       12.0110           0
      9776 MEMB     84       SAPC     H6R      HEL1     0.150000       1.00800           0
      9777 MEMB     84       SAPC     C27      CTL2    -0.180000       12.0110           0
      9778 MEMB     84       SAPC     H7R      HAL2     0.900000E-01   1.00800           0
      9779 MEMB     84       SAPC     H7S      HAL2     0.900000E-01   1.00800           0
      9780 MEMB     84       SAPC     C28      CEL1    -0.150000       12.0110           0
      9781 MEMB     84       SAPC     H8R      HEL1     0.150000       1.00800           0
      9782 MEMB     84       SAPC     C29      CEL1    -0.150000       12.0110           0
      9783 MEMB     84       SAPC     H9R      HEL1     0.150000       1.00800           0
      9784 MEMB     84       SAPC     C210     CTL2    -0.180000       12.0110           0
      9785 MEMB     84       SAPC     H10R     HAL2     0.900000E-01   1.00800           0
      9786 MEMB     84       SAPC     H10S     HAL2     0.900000E-01   1.00800           0
      9787 MEMB     84       SAPC     C211     CEL1    -0.150000       12.0110           0
      9788 MEMB     84       SAPC     H11R     HEL1     0.150000       1.00800           0
      9789 MEMB     84       SAPC     C212     CEL1    -0.150000       12.0110           0
      9790 MEMB     84       SAPC     H12R     HEL1     0.150000       1.00800           0
      9791 MEMB     84       SAPC     C213     CTL2    -0.180000       12.0110           0
      9792 MEMB     84       SAPC     H13R     HAL2     0.900000E-01   1.00800           0
      9793 MEMB     84       SAPC     H13S     HAL2     0.900000E-01   1.00800           0
      9794 MEMB     84       SAPC     C214     CEL1    -0.150000       12.0110           0
      9795 MEMB     84       SAPC     H14R     HEL1     0.150000       1.00800           0
      9796 MEMB     84       SAPC     C215     CEL1    -0.150000       12.0110           0
      9797 MEMB     84       SAPC     H15R     HEL1     0.150000       1.00800           0
      9798 MEMB     84       SAPC     C216     CTL2    -0.180000       12.0110           0
      9799 MEMB     84       SAPC     H16R     HAL2     0.900000E-01   1.00800           0
      9800 MEMB     84       SAPC     H16S     HAL2     0.900000E-01   1.00800           0
      9801 MEMB     84       SAPC     C217     CTL2    -0.180000       12.0110           0
      9802 MEMB     84       SAPC     H17R     HAL2     0.900000E-01   1.00800           0
      9803 MEMB     84       SAPC     H17S     HAL2     0.900000E-01   1.00800           0
      9804 MEMB     84       SAPC     C218     CTL2    -0.270000       12.0110           0
      9805 MEMB     84       SAPC     H18R     HAL2     0.900000E-01   1.00800           0
      9806 MEMB     84       SAPC     H18S     HAL2     0.900000E-01   1.00800           0
      9807 MEMB     84       SAPC     C219     CTL2    -0.180000       12.0110           0
      9808 MEMB     84       SAPC     H19R     HAL2     0.900000E-01   1.00800           0
      9809 MEMB     84       SAPC     H19S     HAL2     0.900000E-01   1.00800           0
      9810 MEMB     84       SAPC     C220     CTL3    -0.180000       12.0110           0
      9811 MEMB     84       SAPC     H20R     HAL3     0.900000E-01   1.00800           0
      9812 MEMB     84       SAPC     H20S     HAL3     0.900000E-01   1.00800           0
      9813 MEMB     84       SAPC     H20T     HAL3     0.900000E-01   1.00800           0
      9814 MEMB     84       SAPC     C33      CTL2    -0.180000       12.0110           0
      9815 MEMB     84       SAPC     H3X      HAL2     0.900000E-01   1.00800           0
      9816 MEMB     84       SAPC     H3Y      HAL2     0.900000E-01   1.00800           0
      9817 MEMB     84       SAPC     C34      CTL2    -0.180000       12.0110           0
      9818 MEMB     84       SAPC     H4X      HAL2     0.900000E-01   1.00800           0
      9819 MEMB     84       SAPC     H4Y      HAL2     0.900000E-01   1.00800           0
      9820 MEMB     84       SAPC     C35      CTL2    -0.180000       12.0110           0
      9821 MEMB     84       SAPC     H5X      HAL2     0.900000E-01   1.00800           0
      9822 MEMB     84       SAPC     H5Y      HAL2     0.900000E-01   1.00800           0
      9823 MEMB     84       SAPC     C36      CTL2    -0.180000       12.0110           0
      9824 MEMB     84       SAPC     H6X      HAL2     0.900000E-01   1.00800           0
      9825 MEMB     84       SAPC     H6Y      HAL2     0.900000E-01   1.00800           0
      9826 MEMB     84       SAPC     C37      CTL2    -0.180000       12.0110           0
      9827 MEMB     84       SAPC     H7X      HAL2     0.900000E-01   1.00800           0
      9828 MEMB     84       SAPC     H7Y      HAL2     0.900000E-01   1.00800           0
      9829 MEMB     84       SAPC     C38      CTL2    -0.180000       12.0110           0
      9830 MEMB     84       SAPC     H8X      HAL2     0.900000E-01   1.00800           0
      9831 MEMB     84       SAPC     H8Y      HAL2     0.900000E-01   1.00800           0
      9832 MEMB     84       SAPC     C39      CTL2    -0.180000       12.0110           0
      9833 MEMB     84       SAPC     H9X      HAL2     0.900000E-01   1.00800           0
      9834 MEMB     84       SAPC     H9Y      HAL2     0.900000E-01   1.00800           0
      9835 MEMB     84       SAPC     C310     CTL2    -0.180000       12.0110           0
      9836 MEMB     84       SAPC     H10X     HAL2     0.900000E-01   1.00800           0
      9837 MEMB     84       SAPC     H10Y     HAL2     0.900000E-01   1.00800           0
      9838 MEMB     84       SAPC     C311     CTL2    -0.180000       12.0110           0
      9839 MEMB     84       SAPC     H11X     HAL2     0.900000E-01   1.00800           0
      9840 MEMB     84       SAPC     H11Y     HAL2     0.900000E-01   1.00800           0
      9841 MEMB     84       SAPC     C312     CTL2    -0.180000       12.0110           0
      9842 MEMB     84       SAPC     H12X     HAL2     0.900000E-01   1.00800           0
      9843 MEMB     84       SAPC     H12Y     HAL2     0.900000E-01   1.00800           0
      9844 MEMB     84       SAPC     C313     CTL2    -0.180000       12.0110           0
      9845 MEMB     84       SAPC     H13X     HAL2     0.900000E-01   1.00800           0
      9846 MEMB     84       SAPC     H13Y     HAL2     0.900000E-01   1.00800           0
      9847 MEMB     84       SAPC     C314     CTL2    -0.180000       12.0110           0
      9848 MEMB     84       SAPC     H14X     HAL2     0.900000E-01   1.00800           0
      9849 MEMB     84       SAPC     H14Y     HAL2     0.900000E-01   1.00800           0
      9850 MEMB     84       SAPC     C315     CTL2    -0.180000       12.0110           0
      9851 MEMB     84       SAPC     H15X     HAL2     0.900000E-01   1.00800           0
      9852 MEMB     84       SAPC     H15Y     HAL2     0.900000E-01   1.00800           0
      9853 MEMB     84       SAPC     C316     CTL2    -0.180000       12.0110           0
      9854 MEMB     84       SAPC     H16X     HAL2     0.900000E-01   1.00800           0
      9855 MEMB     84       SAPC     H16Y     HAL2     0.900000E-01   1.00800           0
      9856 MEMB     84       SAPC     C317     CTL2    -0.180000       12.0110           0
      9857 MEMB     84       SAPC     H17X     HAL2     0.900000E-01   1.00800           0
      9858 MEMB     84       SAPC     H17Y     HAL2     0.900000E-01   1.00800           0
      9859 MEMB     84       SAPC     C318     CTL3    -0.270000       12.0110           0
      9860 MEMB     84       SAPC     H18X     HAL3     0.900000E-01   1.00800           0
      9861 MEMB     84       SAPC     H18Y     HAL3     0.900000E-01   1.00800           0
      9862 MEMB     84       SAPC     H18Z     HAL3     0.900000E-01   1.00800           0
      9863 MEMB     85       CHL1     C3       CRL1     0.140000       12.0110           0
      9864 MEMB     85       CHL1     H3       HGA1     0.900000E-01   1.00800           0
      9865 MEMB     85       CHL1     O3       OHL     -0.660000       15.9994           0
      9866 MEMB     85       CHL1     H3'      HOL      0.430000       1.00800           0
      9867 MEMB     85       CHL1     C4       CRL2    -0.180000       12.0110           0
      9868 MEMB     85       CHL1     H4A      HGA2     0.900000E-01   1.00800           0
      9869 MEMB     85       CHL1     H4B      HGA2     0.900000E-01   1.00800           0
      9870 MEMB     85       CHL1     C5       CEL1      0.00000       12.0110           0
      9871 MEMB     85       CHL1     C6       CEL1    -0.150000       12.0110           0
      9872 MEMB     85       CHL1     H6       HEL1     0.150000       1.00800           0
      9873 MEMB     85       CHL1     C7       CRL2    -0.180000       12.0110           0
      9874 MEMB     85       CHL1     H7A      HGA2     0.900000E-01   1.00800           0
      9875 MEMB     85       CHL1     H7B      HGA2     0.900000E-01   1.00800           0
      9876 MEMB     85       CHL1     C8       CRL1    -0.900000E-01   12.0110           0
      9877 MEMB     85       CHL1     H8       HGA1     0.900000E-01   1.00800           0
      9878 MEMB     85       CHL1     C14      CRL1    -0.900000E-01   12.0110           0
      9879 MEMB     85       CHL1     H14      HGA1     0.900000E-01   1.00800           0
      9880 MEMB     85       CHL1     C15      CRL2    -0.180000       12.0110           0
      9881 MEMB     85       CHL1     H15A     HGA2     0.900000E-01   1.00800           0
      9882 MEMB     85       CHL1     H15B     HGA2     0.900000E-01   1.00800           0
      9883 MEMB     85       CHL1     C16      CRL2    -0.180000       12.0110           0
      9884 MEMB     85       CHL1     H16A     HGA2     0.900000E-01   1.00800           0
      9885 MEMB     85       CHL1     H16B     HGA2     0.900000E-01   1.00800           0
      9886 MEMB     85       CHL1     C17      CRL1    -0.900000E-01   12.0110           0
      9887 MEMB     85       CHL1     H17      HGA1     0.900000E-01   1.00800           0
      9888 MEMB     85       CHL1     C13      CRL1      0.00000       12.0110           0
      9889 MEMB     85       CHL1     C18      CTL3    -0.270000       12.0110           0
      9890 MEMB     85       CHL1     H18A     HAL3     0.900000E-01   1.00800           0
      9891 MEMB     85       CHL1     H18B     HAL3     0.900000E-01   1.00800           0
      9892 MEMB     85       CHL1     H18C     HAL3     0.900000E-01   1.00800           0
      9893 MEMB     85       CHL1     C12      CRL2    -0.180000       12.0110           0
      9894 MEMB     85       CHL1     H12A     HGA2     0.900000E-01   1.00800           0
      9895 MEMB     85       CHL1     H12B     HGA2     0.900000E-01   1.00800           0
      9896 MEMB     85       CHL1     C11      CRL2    -0.180000       12.0110           0
      9897 MEMB     85       CHL1     H11A     HGA2     0.900000E-01   1.00800           0
      9898 MEMB     85       CHL1     H11B     HGA2     0.900000E-01   1.00800           0
      9899 MEMB     85       CHL1     C9       CRL1    -0.900000E-01   12.0110           0
      9900 MEMB     85       CHL1     H9       HGA1     0.900000E-01   1.00800           0
      9901 MEMB     85       CHL1     C10      CRL1      0.00000       12.0110           0
      9902 MEMB     85       CHL1     C19      CTL3    -0.270000       12.0110           0
      9903 MEMB     85       CHL1     H19A     HAL3     0.900000E-01   1.00800           0
      9904 MEMB     85       CHL1     H19B     HAL3     0.900000E-01   1.00800           0
      9905 MEMB     85       CHL1     H19C     HAL3     0.900000E-01   1.00800           0
      9906 MEMB     85       CHL1     C1       CRL2    -0.180000       12.0110           0
      9907 MEMB     85       CHL1     H1A      HGA2     0.900000E-01   1.00800           0
      9908 MEMB     85       CHL1     H1B      HGA2     0.900000E-01   1.00800           0
      9909 MEMB     85       CHL1     C2       CRL2    -0.180000       12.0110           0
      9910 MEMB     85       CHL1     H2A      HGA2     0.900000E-01   1.00800           0
      9911 MEMB     85       CHL1     H2B      HGA2     0.900000E-01   1.00800           0
      9912 MEMB     85       CHL1     C20      CTL1    -0.900000E-01   12.0110           0
      9913 MEMB     85       CHL1     H20      HAL1     0.900000E-01   1.00800           0
      9914 MEMB     85       CHL1     C21      CTL3    -0.270000       12.0110           0
      9915 MEMB     85       CHL1     H21A     HAL3     0.900000E-01   1.00800           0
      9916 MEMB     85       CHL1     H21B     HAL3     0.900000E-01   1.00800           0
      9917 MEMB     85       CHL1     H21C     HAL3     0.900000E-01   1.00800           0
      9918 MEMB     85       CHL1     C22      CTL2    -0.180000       12.0110           0
      9919 MEMB     85       CHL1     H22A     HAL2     0.900000E-01   1.00800           0
      9920 MEMB     85       CHL1     H22B     HAL2     0.900000E-01   1.00800           0
      9921 MEMB     85       CHL1     C23      CTL2    -0.180000       12.0110           0
      9922 MEMB     85       CHL1     H23A     HAL2     0.900000E-01   1.00800           0
      9923 MEMB     85       CHL1     H23B     HAL2     0.900000E-01   1.00800           0
      9924 MEMB     85       CHL1     C24      CTL2    -0.180000       12.0110           0
      9925 MEMB     85       CHL1     H24A     HAL2     0.900000E-01   1.00800           0
      9926 MEMB     85       CHL1     H24B     HAL2     0.900000E-01   1.00800           0
      9927 MEMB     85       CHL1     C25      CTL1    -0.900000E-01   12.0110           0
      9928 MEMB     85       CHL1     H25      HAL1     0.900000E-01   1.00800           0
      9929 MEMB     85       CHL1     C26      CTL3    -0.270000       12.0110           0
      9930 MEMB     85       CHL1     H26A     HAL3     0.900000E-01   1.00800           0
      9931 MEMB     85       CHL1     H26B     HAL3     0.900000E-01   1.00800           0
      9932 MEMB     85       CHL1     H26C     HAL3     0.900000E-01   1.00800           0
      9933 MEMB     85       CHL1     C27      CTL3    -0.270000       12.0110           0
      9934 MEMB     85       CHL1     H27A     HAL3     0.900000E-01   1.00800           0
      9935 MEMB     85       CHL1     H27B     HAL3     0.900000E-01   1.00800           0
      9936 MEMB     85       CHL1     H27C     HAL3     0.900000E-01   1.00800           0
      9937 MEMB     86       SLPC     N        NTL     -0.600000       14.0070           0
      9938 MEMB     86       SLPC     C13      CTL5    -0.350000       12.0110           0
      9939 MEMB     86       SLPC     H13A     HL       0.250000       1.00800           0
      9940 MEMB     86       SLPC     H13B     HL       0.250000       1.00800           0
      9941 MEMB     86       SLPC     H13C     HL       0.250000       1.00800           0
      9942 MEMB     86       SLPC     C14      CTL5    -0.350000       12.0110           0
      9943 MEMB     86       SLPC     H14A     HL       0.250000       1.00800           0
      9944 MEMB     86       SLPC     H14B     HL       0.250000       1.00800           0
      9945 MEMB     86       SLPC     H14C     HL       0.250000       1.00800           0
      9946 MEMB     86       SLPC     C15      CTL5    -0.350000       12.0110           0
      9947 MEMB     86       SLPC     H15A     HL       0.250000       1.00800           0
      9948 MEMB     86       SLPC     H15B     HL       0.250000       1.00800           0
      9949 MEMB     86       SLPC     H15C     HL       0.250000       1.00800           0
      9950 MEMB     86       SLPC     C12      CTL2    -0.100000       12.0110           0
      9951 MEMB     86       SLPC     H12A     HL       0.250000       1.00800           0
      9952 MEMB     86       SLPC     H12B     HL       0.250000       1.00800           0
      9953 MEMB     86       SLPC     C11      CTL2    -0.800000E-01   12.0110           0
      9954 MEMB     86       SLPC     H11A     HAL2     0.900000E-01   1.00800           0
      9955 MEMB     86       SLPC     H11B     HAL2     0.900000E-01   1.00800           0
      9956 MEMB     86       SLPC     P        PL        1.50000       30.9740           0
      9957 MEMB     86       SLPC     O13      O2L     -0.780000       15.9994           0
      9958 MEMB     86       SLPC     O14      O2L     -0.780000       15.9994           0
      9959 MEMB     86       SLPC     O12      OSLP    -0.570000       15.9994           0
      9960 MEMB     86       SLPC     O11      OSLP    -0.570000       15.9994           0
      9961 MEMB     86       SLPC     C1       CTL2    -0.800000E-01   12.0110           0
      9962 MEMB     86       SLPC     HA       HAL2     0.900000E-01   1.00800           0
      9963 MEMB     86       SLPC     HB       HAL2     0.900000E-01   1.00800           0
      9964 MEMB     86       SLPC     C2       CTL1     0.170000       12.0110           0
      9965 MEMB     86       SLPC     HS       HAL1     0.900000E-01   1.00800           0
      9966 MEMB     86       SLPC     O21      OSL     -0.490000       15.9994           0
      9967 MEMB     86       SLPC     C21      CL       0.900000       12.0110           0
      9968 MEMB     86       SLPC     O22      OBL     -0.630000       15.9994           0
      9969 MEMB     86       SLPC     C22      CTL2    -0.220000       12.0110           0
      9970 MEMB     86       SLPC     H2R      HAL2     0.900000E-01   1.00800           0
      9971 MEMB     86       SLPC     H2S      HAL2     0.900000E-01   1.00800           0
      9972 MEMB     86       SLPC     C3       CTL2     0.800000E-01   12.0110           0
      9973 MEMB     86       SLPC     HX       HAL2     0.900000E-01   1.00800           0
      9974 MEMB     86       SLPC     HY       HAL2     0.900000E-01   1.00800           0
      9975 MEMB     86       SLPC     O31      OSL     -0.490000       15.9994           0
      9976 MEMB     86       SLPC     C31      CL       0.900000       12.0110           0
      9977 MEMB     86       SLPC     O32      OBL     -0.630000       15.9994           0
      9978 MEMB     86       SLPC     C32      CTL2    -0.220000       12.0110           0
      9979 MEMB     86       SLPC     H2X      HAL2     0.900000E-01   1.00800           0
      9980 MEMB     86       SLPC     H2Y      HAL2     0.900000E-01   1.00800           0
      9981 MEMB     86       SLPC     C23      CTL2    -0.180000       12.0110           0
      9982 MEMB     86       SLPC     H3R      HAL2     0.900000E-01   1.00800           0
      9983 MEMB     86       SLPC     H3S      HAL2     0.900000E-01   1.00800           0
      9984 MEMB     86       SLPC     C24      CTL2    -0.180000       12.0110           0
      9985 MEMB     86       SLPC     H4R      HAL2     0.900000E-01   1.00800           0
      9986 MEMB     86       SLPC     H4S      HAL2     0.900000E-01   1.00800           0
      9987 MEMB     86       SLPC     C25      CTL2    -0.180000       12.0110           0
      9988 MEMB     86       SLPC     H5R      HAL2     0.900000E-01   1.00800           0
      9989 MEMB     86       SLPC     H5S      HAL2     0.900000E-01   1.00800           0
      9990 MEMB     86       SLPC     C26      CTL2    -0.180000       12.0110           0
      9991 MEMB     86       SLPC     H6R      HAL2     0.900000E-01   1.00800           0
      9992 MEMB     86       SLPC     H6S      HAL2     0.900000E-01   1.00800           0
      9993 MEMB     86       SLPC     C27      CTL2    -0.180000       12.0110           0
      9994 MEMB     86       SLPC     H7R      HAL2     0.900000E-01   1.00800           0
      9995 MEMB     86       SLPC     H7S      HAL2     0.900000E-01   1.00800           0
      9996 MEMB     86       SLPC     C28      CTL2    -0.180000       12.0110           0
      9997 MEMB     86       SLPC     H8R      HAL2     0.900000E-01   1.00800           0
      9998 MEMB     86       SLPC     H8S      HAL2     0.900000E-01   1.00800           0
      9999 MEMB     86       SLPC     C29      CEL1    -0.150000       12.0110           0
     10000 MEMB     86       SLPC     H9R      HEL1     0.150000       1.00800           0
     10001 MEMB     86       SLPC     C210     CEL1    -0.150000       12.0110           0
     10002 MEMB     86       SLPC     H10R     HEL1     0.150000       1.00800           0
     10003 MEMB     86       SLPC     C211     CTL2    -0.180000       12.0110           0
     10004 MEMB     86       SLPC     H11R     HAL2     0.900000E-01   1.00800           0
     10005 MEMB     86       SLPC     H11S     HAL2     0.900000E-01   1.00800           0
     10006 MEMB     86       SLPC     C212     CEL1    -0.150000       12.0110           0
     10007 MEMB     86       SLPC     H12R     HEL1     0.150000       1.00800           0
     10008 MEMB     86       SLPC     C213     CEL1    -0.150000       12.0110           0
     10009 MEMB     86       SLPC     H13R     HEL1     0.150000       1.00800           0
     10010 MEMB     86       SLPC     C214     CTL2    -0.180000       12.0110           0
     10011 MEMB     86       SLPC     H14R     HAL2     0.900000E-01   1.00800           0
     10012 MEMB     86       SLPC     H14S     HAL2     0.900000E-01   1.00800           0
     10013 MEMB     86       SLPC     C215     CTL2    -0.180000       12.0110           0
     10014 MEMB     86       SLPC     H15R     HAL2     0.900000E-01   1.00800           0
     10015 MEMB     86       SLPC     H15S     HAL2     0.900000E-01   1.00800           0
     10016 MEMB     86       SLPC     C216     CTL2    -0.180000       12.0110           0
     10017 MEMB     86       SLPC     H16R     HAL2     0.900000E-01   1.00800           0
     10018 MEMB     86       SLPC     H16S     HAL2     0.900000E-01   1.00800           0
     10019 MEMB     86       SLPC     C217     CTL2    -0.180000       12.0110           0
     10020 MEMB     86       SLPC     H17R     HAL2     0.900000E-01   1.00800           0
     10021 MEMB     86       SLPC     H17S     HAL2     0.900000E-01   1.00800           0
     10022 MEMB     86       SLPC     C218     CTL3    -0.270000       12.0110           0
     10023 MEMB     86       SLPC     H18R     HAL3     0.900000E-01   1.00800           0
     10024 MEMB     86       SLPC     H18S     HAL3     0.900000E-01   1.00800           0
     10025 MEMB     86       SLPC     H18T     HAL3     0.900000E-01   1.00800           0
     10026 MEMB     86       SLPC     C33      CTL2    -0.180000       12.0110           0
     10027 MEMB     86       SLPC     H3X      HAL2     0.900000E-01   1.00800           0
     10028 MEMB     86       SLPC     H3Y      HAL2     0.900000E-01   1.00800           0
     10029 MEMB     86       SLPC     C34      CTL2    -0.180000       12.0110           0
     10030 MEMB     86       SLPC     H4X      HAL2     0.900000E-01   1.00800           0
     10031 MEMB     86       SLPC     H4Y      HAL2     0.900000E-01   1.00800           0
     10032 MEMB     86       SLPC     C35      CTL2    -0.180000       12.0110           0
     10033 MEMB     86       SLPC     H5X      HAL2     0.900000E-01   1.00800           0
     10034 MEMB     86       SLPC     H5Y      HAL2     0.900000E-01   1.00800           0
     10035 MEMB     86       SLPC     C36      CTL2    -0.180000       12.0110           0
     10036 MEMB     86       SLPC     H6X      HAL2     0.900000E-01   1.00800           0
     10037 MEMB     86       SLPC     H6Y      HAL2     0.900000E-01   1.00800           0
     10038 MEMB     86       SLPC     C37      CTL2    -0.180000       12.0110           0
     10039 MEMB     86       SLPC     H7X      HAL2     0.900000E-01   1.00800           0
     10040 MEMB     86       SLPC     H7Y      HAL2     0.900000E-01   1.00800           0
     10041 MEMB     86       SLPC     C38      CTL2    -0.180000       12.0110           0
     10042 MEMB     86       SLPC     H8X      HAL2     0.900000E-01   1.00800           0
     10043 MEMB     86       SLPC     H8Y      HAL2     0.900000E-01   1.00800           0
     10044 MEMB     86       SLPC     C39      CTL2    -0.180000       12.0110           0
     10045 MEMB     86       SLPC     H9X      HAL2     0.900000E-01   1.00800           0
     10046 MEMB     86       SLPC     H9Y      HAL2     0.900000E-01   1.00800           0
     10047 MEMB     86       SLPC     C310     CTL2    -0.180000       12.0110           0
     10048 MEMB     86       SLPC     H10X     HAL2     0.900000E-01   1.00800           0
     10049 MEMB     86       SLPC     H10Y     HAL2     0.900000E-01   1.00800           0
     10050 MEMB     86       SLPC     C311     CTL2    -0.180000       12.0110           0
     10051 MEMB     86       SLPC     H11X     HAL2     0.900000E-01   1.00800           0
     10052 MEMB     86       SLPC     H11Y     HAL2     0.900000E-01   1.00800           0
     10053 MEMB     86       SLPC     C312     CTL2    -0.180000       12.0110           0
     10054 MEMB     86       SLPC     H12X     HAL2     0.900000E-01   1.00800           0
     10055 MEMB     86       SLPC     H12Y     HAL2     0.900000E-01   1.00800           0
     10056 MEMB     86       SLPC     C313     CTL2    -0.180000       12.0110           0
     10057 MEMB     86       SLPC     H13X     HAL2     0.900000E-01   1.00800           0
     10058 MEMB     86       SLPC     H13Y     HAL2     0.900000E-01   1.00800           0
     10059 MEMB     86       SLPC     C314     CTL2    -0.180000       12.0110           0
     10060 MEMB     86       SLPC     H14X     HAL2     0.900000E-01   1.00800           0
     10061 MEMB     86       SLPC     H14Y     HAL2     0.900000E-01   1.00800           0
     10062 MEMB     86       SLPC     C315     CTL2    -0.180000       12.0110           0
     10063 MEMB     86       SLPC     H15X     HAL2     0.900000E-01   1.00800           0
     10064 MEMB     86       SLPC     H15Y     HAL2     0.900000E-01   1.00800           0
     10065 MEMB     86       SLPC     C316     CTL2    -0.180000       12.0110           0
     10066 MEMB     86       SLPC     H16X     HAL2     0.900000E-01   1.00800           0
     10067 MEMB     86       SLPC     H16Y     HAL2     0.900000E-01   1.00800           0
     10068 MEMB     86       SLPC     C317     CTL2    -0.180000       12.0110           0
     10069 MEMB     86       SLPC     H17X     HAL2     0.900000E-01   1.00800           0
     10070 MEMB     86       SLPC     H17Y     HAL2     0.900000E-01   1.00800           0
     10071 MEMB     86       SLPC     C318     CTL3    -0.270000       12.0110           0
     10072 MEMB     86       SLPC     H18X     HAL3     0.900000E-01   1.00800           0
     10073 MEMB     86       SLPC     H18Y     HAL3     0.900000E-01   1.00800           0
     10074 MEMB     86       SLPC     H18Z     HAL3     0.900000E-01   1.00800           0
     10075 MEMB     87       CHL1     C3       CRL1     0.140000       12.0110           0
     10076 MEMB     87       CHL1     H3       HGA1     0.900000E-01   1.00800           0
     10077 MEMB     87       CHL1     O3       OHL     -0.660000       15.9994           0
     10078 MEMB     87       CHL1     H3'      HOL      0.430000       1.00800           0
     10079 MEMB     87       CHL1     C4       CRL2    -0.180000       12.0110           0
     10080 MEMB     87       CHL1     H4A      HGA2     0.900000E-01   1.00800           0
     10081 MEMB     87       CHL1     H4B      HGA2     0.900000E-01   1.00800           0
     10082 MEMB     87       CHL1     C5       CEL1      0.00000       12.0110           0
     10083 MEMB     87       CHL1     C6       CEL1    -0.150000       12.0110           0
     10084 MEMB     87       CHL1     H6       HEL1     0.150000       1.00800           0
     10085 MEMB     87       CHL1     C7       CRL2    -0.180000       12.0110           0
     10086 MEMB     87       CHL1     H7A      HGA2     0.900000E-01   1.00800           0
     10087 MEMB     87       CHL1     H7B      HGA2     0.900000E-01   1.00800           0
     10088 MEMB     87       CHL1     C8       CRL1    -0.900000E-01   12.0110           0
     10089 MEMB     87       CHL1     H8       HGA1     0.900000E-01   1.00800           0
     10090 MEMB     87       CHL1     C14      CRL1    -0.900000E-01   12.0110           0
     10091 MEMB     87       CHL1     H14      HGA1     0.900000E-01   1.00800           0
     10092 MEMB     87       CHL1     C15      CRL2    -0.180000       12.0110           0
     10093 MEMB     87       CHL1     H15A     HGA2     0.900000E-01   1.00800           0
     10094 MEMB     87       CHL1     H15B     HGA2     0.900000E-01   1.00800           0
     10095 MEMB     87       CHL1     C16      CRL2    -0.180000       12.0110           0
     10096 MEMB     87       CHL1     H16A     HGA2     0.900000E-01   1.00800           0
     10097 MEMB     87       CHL1     H16B     HGA2     0.900000E-01   1.00800           0
     10098 MEMB     87       CHL1     C17      CRL1    -0.900000E-01   12.0110           0
     10099 MEMB     87       CHL1     H17      HGA1     0.900000E-01   1.00800           0
     10100 MEMB     87       CHL1     C13      CRL1      0.00000       12.0110           0
     10101 MEMB     87       CHL1     C18      CTL3    -0.270000       12.0110           0
     10102 MEMB     87       CHL1     H18A     HAL3     0.900000E-01   1.00800           0
     10103 MEMB     87       CHL1     H18B     HAL3     0.900000E-01   1.00800           0
     10104 MEMB     87       CHL1     H18C     HAL3     0.900000E-01   1.00800           0
     10105 MEMB     87       CHL1     C12      CRL2    -0.180000       12.0110           0
     10106 MEMB     87       CHL1     H12A     HGA2     0.900000E-01   1.00800           0
     10107 MEMB     87       CHL1     H12B     HGA2     0.900000E-01   1.00800           0
     10108 MEMB     87       CHL1     C11      CRL2    -0.180000       12.0110           0
     10109 MEMB     87       CHL1     H11A     HGA2     0.900000E-01   1.00800           0
     10110 MEMB     87       CHL1     H11B     HGA2     0.900000E-01   1.00800           0
     10111 MEMB     87       CHL1     C9       CRL1    -0.900000E-01   12.0110           0
     10112 MEMB     87       CHL1     H9       HGA1     0.900000E-01   1.00800           0
     10113 MEMB     87       CHL1     C10      CRL1      0.00000       12.0110           0
     10114 MEMB     87       CHL1     C19      CTL3    -0.270000       12.0110           0
     10115 MEMB     87       CHL1     H19A     HAL3     0.900000E-01   1.00800           0
     10116 MEMB     87       CHL1     H19B     HAL3     0.900000E-01   1.00800           0
     10117 MEMB     87       CHL1     H19C     HAL3     0.900000E-01   1.00800           0
     10118 MEMB     87       CHL1     C1       CRL2    -0.180000       12.0110           0
     10119 MEMB     87       CHL1     H1A      HGA2     0.900000E-01   1.00800           0
     10120 MEMB     87       CHL1     H1B      HGA2     0.900000E-01   1.00800           0
     10121 MEMB     87       CHL1     C2       CRL2    -0.180000       12.0110           0
     10122 MEMB     87       CHL1     H2A      HGA2     0.900000E-01   1.00800           0
     10123 MEMB     87       CHL1     H2B      HGA2     0.900000E-01   1.00800           0
     10124 MEMB     87       CHL1     C20      CTL1    -0.900000E-01   12.0110           0
     10125 MEMB     87       CHL1     H20      HAL1     0.900000E-01   1.00800           0
     10126 MEMB     87       CHL1     C21      CTL3    -0.270000       12.0110           0
     10127 MEMB     87       CHL1     H21A     HAL3     0.900000E-01   1.00800           0
     10128 MEMB     87       CHL1     H21B     HAL3     0.900000E-01   1.00800           0
     10129 MEMB     87       CHL1     H21C     HAL3     0.900000E-01   1.00800           0
     10130 MEMB     87       CHL1     C22      CTL2    -0.180000       12.0110           0
     10131 MEMB     87       CHL1     H22A     HAL2     0.900000E-01   1.00800           0
     10132 MEMB     87       CHL1     H22B     HAL2     0.900000E-01   1.00800           0
     10133 MEMB     87       CHL1     C23      CTL2    -0.180000       12.0110           0
     10134 MEMB     87       CHL1     H23A     HAL2     0.900000E-01   1.00800           0
     10135 MEMB     87       CHL1     H23B     HAL2     0.900000E-01   1.00800           0
     10136 MEMB     87       CHL1     C24      CTL2    -0.180000       12.0110           0
     10137 MEMB     87       CHL1     H24A     HAL2     0.900000E-01   1.00800           0
     10138 MEMB     87       CHL1     H24B     HAL2     0.900000E-01   1.00800           0
     10139 MEMB     87       CHL1     C25      CTL1    -0.900000E-01   12.0110           0
     10140 MEMB     87       CHL1     H25      HAL1     0.900000E-01   1.00800           0
     10141 MEMB     87       CHL1     C26      CTL3    -0.270000       12.0110           0
     10142 MEMB     87       CHL1     H26A     HAL3     0.900000E-01   1.00800           0
     10143 MEMB     87       CHL1     H26B     HAL3     0.900000E-01   1.00800           0
     10144 MEMB     87       CHL1     H26C     HAL3     0.900000E-01   1.00800           0
     10145 MEMB     87       CHL1     C27      CTL3    -0.270000       12.0110           0
     10146 MEMB     87       CHL1     H27A     HAL3     0.900000E-01   1.00800           0
     10147 MEMB     87       CHL1     H27B     HAL3     0.900000E-01   1.00800           0
     10148 MEMB     87       CHL1     H27C     HAL3     0.900000E-01   1.00800           0
     10149 MEMB     88       CHL1     C3       CRL1     0.140000       12.0110           0
     10150 MEMB     88       CHL1     H3       HGA1     0.900000E-01   1.00800           0
     10151 MEMB     88       CHL1     O3       OHL     -0.660000       15.9994           0
     10152 MEMB     88       CHL1     H3'      HOL      0.430000       1.00800           0
     10153 MEMB     88       CHL1     C4       CRL2    -0.180000       12.0110           0
     10154 MEMB     88       CHL1     H4A      HGA2     0.900000E-01   1.00800           0
     10155 MEMB     88       CHL1     H4B      HGA2     0.900000E-01   1.00800           0
     10156 MEMB     88       CHL1     C5       CEL1      0.00000       12.0110           0
     10157 MEMB     88       CHL1     C6       CEL1    -0.150000       12.0110           0
     10158 MEMB     88       CHL1     H6       HEL1     0.150000       1.00800           0
     10159 MEMB     88       CHL1     C7       CRL2    -0.180000       12.0110           0
     10160 MEMB     88       CHL1     H7A      HGA2     0.900000E-01   1.00800           0
     10161 MEMB     88       CHL1     H7B      HGA2     0.900000E-01   1.00800           0
     10162 MEMB     88       CHL1     C8       CRL1    -0.900000E-01   12.0110           0
     10163 MEMB     88       CHL1     H8       HGA1     0.900000E-01   1.00800           0
     10164 MEMB     88       CHL1     C14      CRL1    -0.900000E-01   12.0110           0
     10165 MEMB     88       CHL1     H14      HGA1     0.900000E-01   1.00800           0
     10166 MEMB     88       CHL1     C15      CRL2    -0.180000       12.0110           0
     10167 MEMB     88       CHL1     H15A     HGA2     0.900000E-01   1.00800           0
     10168 MEMB     88       CHL1     H15B     HGA2     0.900000E-01   1.00800           0
     10169 MEMB     88       CHL1     C16      CRL2    -0.180000       12.0110           0
     10170 MEMB     88       CHL1     H16A     HGA2     0.900000E-01   1.00800           0
     10171 MEMB     88       CHL1     H16B     HGA2     0.900000E-01   1.00800           0
     10172 MEMB     88       CHL1     C17      CRL1    -0.900000E-01   12.0110           0
     10173 MEMB     88       CHL1     H17      HGA1     0.900000E-01   1.00800           0
     10174 MEMB     88       CHL1     C13      CRL1      0.00000       12.0110           0
     10175 MEMB     88       CHL1     C18      CTL3    -0.270000       12.0110           0
     10176 MEMB     88       CHL1     H18A     HAL3     0.900000E-01   1.00800           0
     10177 MEMB     88       CHL1     H18B     HAL3     0.900000E-01   1.00800           0
     10178 MEMB     88       CHL1     H18C     HAL3     0.900000E-01   1.00800           0
     10179 MEMB     88       CHL1     C12      CRL2    -0.180000       12.0110           0
     10180 MEMB     88       CHL1     H12A     HGA2     0.900000E-01   1.00800           0
     10181 MEMB     88       CHL1     H12B     HGA2     0.900000E-01   1.00800           0
     10182 MEMB     88       CHL1     C11      CRL2    -0.180000       12.0110           0
     10183 MEMB     88       CHL1     H11A     HGA2     0.900000E-01   1.00800           0
     10184 MEMB     88       CHL1     H11B     HGA2     0.900000E-01   1.00800           0
     10185 MEMB     88       CHL1     C9       CRL1    -0.900000E-01   12.0110           0
     10186 MEMB     88       CHL1     H9       HGA1     0.900000E-01   1.00800           0
     10187 MEMB     88       CHL1     C10      CRL1      0.00000       12.0110           0
     10188 MEMB     88       CHL1     C19      CTL3    -0.270000       12.0110           0
     10189 MEMB     88       CHL1     H19A     HAL3     0.900000E-01   1.00800           0
     10190 MEMB     88       CHL1     H19B     HAL3     0.900000E-01   1.00800           0
     10191 MEMB     88       CHL1     H19C     HAL3     0.900000E-01   1.00800           0
     10192 MEMB     88       CHL1     C1       CRL2    -0.180000       12.0110           0
     10193 MEMB     88       CHL1     H1A      HGA2     0.900000E-01   1.00800           0
     10194 MEMB     88       CHL1     H1B      HGA2     0.900000E-01   1.00800           0
     10195 MEMB     88       CHL1     C2       CRL2    -0.180000       12.0110           0
     10196 MEMB     88       CHL1     H2A      HGA2     0.900000E-01   1.00800           0
     10197 MEMB     88       CHL1     H2B      HGA2     0.900000E-01   1.00800           0
     10198 MEMB     88       CHL1     C20      CTL1    -0.900000E-01   12.0110           0
     10199 MEMB     88       CHL1     H20      HAL1     0.900000E-01   1.00800           0
     10200 MEMB     88       CHL1     C21      CTL3    -0.270000       12.0110           0
     10201 MEMB     88       CHL1     H21A     HAL3     0.900000E-01   1.00800           0
     10202 MEMB     88       CHL1     H21B     HAL3     0.900000E-01   1.00800           0
     10203 MEMB     88       CHL1     H21C     HAL3     0.900000E-01   1.00800           0
     10204 MEMB     88       CHL1     C22      CTL2    -0.180000       12.0110           0
     10205 MEMB     88       CHL1     H22A     HAL2     0.900000E-01   1.00800           0
     10206 MEMB     88       CHL1     H22B     HAL2     0.900000E-01   1.00800           0
     10207 MEMB     88       CHL1     C23      CTL2    -0.180000       12.0110           0
     10208 MEMB     88       CHL1     H23A     HAL2     0.900000E-01   1.00800           0
     10209 MEMB     88       CHL1     H23B     HAL2     0.900000E-01   1.00800           0
     10210 MEMB     88       CHL1     C24      CTL2    -0.180000       12.0110           0
     10211 MEMB     88       CHL1     H24A     HAL2     0.900000E-01   1.00800           0
     10212 MEMB     88       CHL1     H24B     HAL2     0.900000E-01   1.00800           0
     10213 MEMB     88       CHL1     C25      CTL1    -0.900000E-01   12.0110           0
     10214 MEMB     88       CHL1     H25      HAL1     0.900000E-01   1.00800           0
     10215 MEMB     88       CHL1     C26      CTL3    -0.270000       12.0110           0
     10216 MEMB     88       CHL1     H26A     HAL3     0.900000E-01   1.00800           0
     10217 MEMB     88       CHL1     H26B     HAL3     0.900000E-01   1.00800           0
     10218 MEMB     88       CHL1     H26C     HAL3     0.900000E-01   1.00800           0
     10219 MEMB     88       CHL1     C27      CTL3    -0.270000       12.0110           0
     10220 MEMB     88       CHL1     H27A     HAL3     0.900000E-01   1.00800           0
     10221 MEMB     88       CHL1     H27B     HAL3     0.900000E-01   1.00800           0
     10222 MEMB     88       CHL1     H27C     HAL3     0.900000E-01   1.00800           0
     10223 MEMB     89       SAPE     N        NH3L    -0.300000       14.0070           0
     10224 MEMB     89       SAPE     HN1      HCL      0.330000       1.00800           0
     10225 MEMB     89       SAPE     HN2      HCL      0.330000       1.00800           0
     10226 MEMB     89       SAPE     HN3      HCL      0.330000       1.00800           0
     10227 MEMB     89       SAPE     C12      CTL2     0.130000       12.0110           0
     10228 MEMB     89       SAPE     H12A     HAL2     0.900000E-01   1.00800           0
     10229 MEMB     89       SAPE     H12B     HAL2     0.900000E-01   1.00800           0
     10230 MEMB     89       SAPE     C11      CTL2    -0.800000E-01   12.0110           0
     10231 MEMB     89       SAPE     H11A     HAL2     0.900000E-01   1.00800           0
     10232 MEMB     89       SAPE     H11B     HAL2     0.900000E-01   1.00800           0
     10233 MEMB     89       SAPE     P        PL        1.50000       30.9740           0
     10234 MEMB     89       SAPE     O13      O2L     -0.780000       15.9994           0
     10235 MEMB     89       SAPE     O14      O2L     -0.780000       15.9994           0
     10236 MEMB     89       SAPE     O12      OSLP    -0.570000       15.9994           0
     10237 MEMB     89       SAPE     O11      OSLP    -0.570000       15.9994           0
     10238 MEMB     89       SAPE     C1       CTL2    -0.800000E-01   12.0110           0
     10239 MEMB     89       SAPE     HA       HAL2     0.900000E-01   1.00800           0
     10240 MEMB     89       SAPE     HB       HAL2     0.900000E-01   1.00800           0
     10241 MEMB     89       SAPE     C2       CTL1     0.170000       12.0110           0
     10242 MEMB     89       SAPE     HS       HAL1     0.900000E-01   1.00800           0
     10243 MEMB     89       SAPE     O21      OSL     -0.490000       15.9994           0
     10244 MEMB     89       SAPE     C21      CL       0.900000       12.0110           0
     10245 MEMB     89       SAPE     O22      OBL     -0.630000       15.9994           0
     10246 MEMB     89       SAPE     C22      CTL2    -0.220000       12.0110           0
     10247 MEMB     89       SAPE     H2R      HAL2     0.900000E-01   1.00800           0
     10248 MEMB     89       SAPE     H2S      HAL2     0.900000E-01   1.00800           0
     10249 MEMB     89       SAPE     C3       CTL2     0.800000E-01   12.0110           0
     10250 MEMB     89       SAPE     HX       HAL2     0.900000E-01   1.00800           0
     10251 MEMB     89       SAPE     HY       HAL2     0.900000E-01   1.00800           0
     10252 MEMB     89       SAPE     O31      OSL     -0.490000       15.9994           0
     10253 MEMB     89       SAPE     C31      CL       0.900000       12.0110           0
     10254 MEMB     89       SAPE     O32      OBL     -0.630000       15.9994           0
     10255 MEMB     89       SAPE     C32      CTL2    -0.220000       12.0110           0
     10256 MEMB     89       SAPE     H2X      HAL2     0.900000E-01   1.00800           0
     10257 MEMB     89       SAPE     H2Y      HAL2     0.900000E-01   1.00800           0
     10258 MEMB     89       SAPE     C23      CTL2    -0.180000       12.0110           0
     10259 MEMB     89       SAPE     H3R      HAL2     0.900000E-01   1.00800           0
     10260 MEMB     89       SAPE     H3S      HAL2     0.900000E-01   1.00800           0
     10261 MEMB     89       SAPE     C24      CTL2    -0.180000       12.0110           0
     10262 MEMB     89       SAPE     H4R      HAL2     0.900000E-01   1.00800           0
     10263 MEMB     89       SAPE     H4S      HAL2     0.900000E-01   1.00800           0
     10264 MEMB     89       SAPE     C25      CEL1    -0.150000       12.0110           0
     10265 MEMB     89       SAPE     H5R      HEL1     0.150000       1.00800           0
     10266 MEMB     89       SAPE     C26      CEL1    -0.150000       12.0110           0
     10267 MEMB     89       SAPE     H6R      HEL1     0.150000       1.00800           0
     10268 MEMB     89       SAPE     C27      CTL2    -0.180000       12.0110           0
     10269 MEMB     89       SAPE     H7R      HAL2     0.900000E-01   1.00800           0
     10270 MEMB     89       SAPE     H7S      HAL2     0.900000E-01   1.00800           0
     10271 MEMB     89       SAPE     C28      CEL1    -0.150000       12.0110           0
     10272 MEMB     89       SAPE     H8R      HEL1     0.150000       1.00800           0
     10273 MEMB     89       SAPE     C29      CEL1    -0.150000       12.0110           0
     10274 MEMB     89       SAPE     H9R      HEL1     0.150000       1.00800           0
     10275 MEMB     89       SAPE     C210     CTL2    -0.180000       12.0110           0
     10276 MEMB     89       SAPE     H10R     HAL2     0.900000E-01   1.00800           0
     10277 MEMB     89       SAPE     H10S     HAL2     0.900000E-01   1.00800           0
     10278 MEMB     89       SAPE     C211     CEL1    -0.150000       12.0110           0
     10279 MEMB     89       SAPE     H11R     HEL1     0.150000       1.00800           0
     10280 MEMB     89       SAPE     C212     CEL1    -0.150000       12.0110           0
     10281 MEMB     89       SAPE     H12R     HEL1     0.150000       1.00800           0
     10282 MEMB     89       SAPE     C213     CTL2    -0.180000       12.0110           0
     10283 MEMB     89       SAPE     H13R     HAL2     0.900000E-01   1.00800           0
     10284 MEMB     89       SAPE     H13S     HAL2     0.900000E-01   1.00800           0
     10285 MEMB     89       SAPE     C214     CEL1    -0.150000       12.0110           0
     10286 MEMB     89       SAPE     H14R     HEL1     0.150000       1.00800           0
     10287 MEMB     89       SAPE     C215     CEL1    -0.150000       12.0110           0
     10288 MEMB     89       SAPE     H15R     HEL1     0.150000       1.00800           0
     10289 MEMB     89       SAPE     C216     CTL2    -0.180000       12.0110           0
     10290 MEMB     89       SAPE     H16R     HAL2     0.900000E-01   1.00800           0
     10291 MEMB     89       SAPE     H16S     HAL2     0.900000E-01   1.00800           0
     10292 MEMB     89       SAPE     C217     CTL2    -0.180000       12.0110           0
     10293 MEMB     89       SAPE     H17R     HAL2     0.900000E-01   1.00800           0
     10294 MEMB     89       SAPE     H17S     HAL2     0.900000E-01   1.00800           0
     10295 MEMB     89       SAPE     C218     CTL2    -0.180000       12.0110           0
     10296 MEMB     89       SAPE     H18R     HAL2     0.900000E-01   1.00800           0
     10297 MEMB     89       SAPE     H18S     HAL2     0.900000E-01   1.00800           0
     10298 MEMB     89       SAPE     C219     CTL2    -0.180000       12.0110           0
     10299 MEMB     89       SAPE     H19R     HAL2     0.900000E-01   1.00800           0
     10300 MEMB     89       SAPE     H19S     HAL2     0.900000E-01   1.00800           0
     10301 MEMB     89       SAPE     C220     CTL3    -0.270000       12.0110           0
     10302 MEMB     89       SAPE     H20R     HAL3     0.900000E-01   1.00800           0
     10303 MEMB     89       SAPE     H20S     HAL3     0.900000E-01   1.00800           0
     10304 MEMB     89       SAPE     H20T     HAL3     0.900000E-01   1.00800           0
     10305 MEMB     89       SAPE     C33      CTL2    -0.180000       12.0110           0
     10306 MEMB     89       SAPE     H3X      HAL2     0.900000E-01   1.00800           0
     10307 MEMB     89       SAPE     H3Y      HAL2     0.900000E-01   1.00800           0
     10308 MEMB     89       SAPE     C34      CTL2    -0.180000       12.0110           0
     10309 MEMB     89       SAPE     H4X      HAL2     0.900000E-01   1.00800           0
     10310 MEMB     89       SAPE     H4Y      HAL2     0.900000E-01   1.00800           0
     10311 MEMB     89       SAPE     C35      CTL2    -0.180000       12.0110           0
     10312 MEMB     89       SAPE     H5X      HAL2     0.900000E-01   1.00800           0
     10313 MEMB     89       SAPE     H5Y      HAL2     0.900000E-01   1.00800           0
     10314 MEMB     89       SAPE     C36      CTL2    -0.180000       12.0110           0
     10315 MEMB     89       SAPE     H6X      HAL2     0.900000E-01   1.00800           0
     10316 MEMB     89       SAPE     H6Y      HAL2     0.900000E-01   1.00800           0
     10317 MEMB     89       SAPE     C37      CTL2    -0.180000       12.0110           0
     10318 MEMB     89       SAPE     H7X      HAL2     0.900000E-01   1.00800           0
     10319 MEMB     89       SAPE     H7Y      HAL2     0.900000E-01   1.00800           0
     10320 MEMB     89       SAPE     C38      CTL2    -0.180000       12.0110           0
     10321 MEMB     89       SAPE     H8X      HAL2     0.900000E-01   1.00800           0
     10322 MEMB     89       SAPE     H8Y      HAL2     0.900000E-01   1.00800           0
     10323 MEMB     89       SAPE     C39      CTL2    -0.180000       12.0110           0
     10324 MEMB     89       SAPE     H9X      HAL2     0.900000E-01   1.00800           0
     10325 MEMB     89       SAPE     H9Y      HAL2     0.900000E-01   1.00800           0
     10326 MEMB     89       SAPE     C310     CTL2    -0.180000       12.0110           0
     10327 MEMB     89       SAPE     H10X     HAL2     0.900000E-01   1.00800           0
     10328 MEMB     89       SAPE     H10Y     HAL2     0.900000E-01   1.00800           0
     10329 MEMB     89       SAPE     C311     CTL2    -0.180000       12.0110           0
     10330 MEMB     89       SAPE     H11X     HAL2     0.900000E-01   1.00800           0
     10331 MEMB     89       SAPE     H11Y     HAL2     0.900000E-01   1.00800           0
     10332 MEMB     89       SAPE     C312     CTL2    -0.180000       12.0110           0
     10333 MEMB     89       SAPE     H12X     HAL2     0.900000E-01   1.00800           0
     10334 MEMB     89       SAPE     H12Y     HAL2     0.900000E-01   1.00800           0
     10335 MEMB     89       SAPE     C313     CTL2    -0.180000       12.0110           0
     10336 MEMB     89       SAPE     H13X     HAL2     0.900000E-01   1.00800           0
     10337 MEMB     89       SAPE     H13Y     HAL2     0.900000E-01   1.00800           0
     10338 MEMB     89       SAPE     C314     CTL2    -0.180000       12.0110           0
     10339 MEMB     89       SAPE     H14X     HAL2     0.900000E-01   1.00800           0
     10340 MEMB     89       SAPE     H14Y     HAL2     0.900000E-01   1.00800           0
     10341 MEMB     89       SAPE     C315     CTL2    -0.180000       12.0110           0
     10342 MEMB     89       SAPE     H15X     HAL2     0.900000E-01   1.00800           0
     10343 MEMB     89       SAPE     H15Y     HAL2     0.900000E-01   1.00800           0
     10344 MEMB     89       SAPE     C316     CTL2    -0.180000       12.0110           0
     10345 MEMB     89       SAPE     H16X     HAL2     0.900000E-01   1.00800           0
     10346 MEMB     89       SAPE     H16Y     HAL2     0.900000E-01   1.00800           0
     10347 MEMB     89       SAPE     C317     CTL2    -0.180000       12.0110           0
     10348 MEMB     89       SAPE     H17X     HAL2     0.900000E-01   1.00800           0
     10349 MEMB     89       SAPE     H17Y     HAL2     0.900000E-01   1.00800           0
     10350 MEMB     89       SAPE     C318     CTL3    -0.270000       12.0110           0
     10351 MEMB     89       SAPE     H18X     HAL3     0.900000E-01   1.00800           0
     10352 MEMB     89       SAPE     H18Y     HAL3     0.900000E-01   1.00800           0
     10353 MEMB     89       SAPE     H18Z     HAL3     0.900000E-01   1.00800           0
     10354 MEMB     90       SAPS     N        NH3L    -0.300000       14.0070           0
     10355 MEMB     90       SAPS     HN1      HCL      0.330000       1.00800           0
     10356 MEMB     90       SAPS     HN2      HCL      0.330000       1.00800           0
     10357 MEMB     90       SAPS     HN3      HCL      0.330000       1.00800           0
     10358 MEMB     90       SAPS     C12      CTL1     0.210000       12.0110           0
     10359 MEMB     90       SAPS     H12A     HBL      0.100000       1.00800           0
     10360 MEMB     90       SAPS     C13      CCL      0.340000       12.0110           0
     10361 MEMB     90       SAPS     O13A     OCL     -0.670000       15.9994           0
     10362 MEMB     90       SAPS     O13B     OCL     -0.670000       15.9994           0
     10363 MEMB     90       SAPS     C11      CTL2    -0.800000E-01   12.0110           0
     10364 MEMB     90       SAPS     H11A     HAL2     0.900000E-01   1.00800           0
     10365 MEMB     90       SAPS     H11B     HAL2     0.900000E-01   1.00800           0
     10366 MEMB     90       SAPS     P        PL        1.50000       30.9740           0
     10367 MEMB     90       SAPS     O13      O2L     -0.780000       15.9994           0
     10368 MEMB     90       SAPS     O14      O2L     -0.780000       15.9994           0
     10369 MEMB     90       SAPS     O12      OSLP    -0.570000       15.9994           0
     10370 MEMB     90       SAPS     O11      OSLP    -0.570000       15.9994           0
     10371 MEMB     90       SAPS     C1       CTL2    -0.800000E-01   12.0110           0
     10372 MEMB     90       SAPS     HA       HAL2     0.900000E-01   1.00800           0
     10373 MEMB     90       SAPS     HB       HAL2     0.900000E-01   1.00800           0
     10374 MEMB     90       SAPS     C2       CTL1     0.170000       12.0110           0
     10375 MEMB     90       SAPS     HS       HAL1     0.900000E-01   1.00800           0
     10376 MEMB     90       SAPS     O21      OSL     -0.490000       15.9994           0
     10377 MEMB     90       SAPS     C21      CL       0.900000       12.0110           0
     10378 MEMB     90       SAPS     O22      OBL     -0.630000       15.9994           0
     10379 MEMB     90       SAPS     C22      CTL2    -0.220000       12.0110           0
     10380 MEMB     90       SAPS     H2R      HAL2     0.900000E-01   1.00800           0
     10381 MEMB     90       SAPS     H2S      HAL2     0.900000E-01   1.00800           0
     10382 MEMB     90       SAPS     C3       CTL2     0.800000E-01   12.0110           0
     10383 MEMB     90       SAPS     HX       HAL2     0.900000E-01   1.00800           0
     10384 MEMB     90       SAPS     HY       HAL2     0.900000E-01   1.00800           0
     10385 MEMB     90       SAPS     O31      OSL     -0.490000       15.9994           0
     10386 MEMB     90       SAPS     C31      CL       0.900000       12.0110           0
     10387 MEMB     90       SAPS     O32      OBL     -0.630000       15.9994           0
     10388 MEMB     90       SAPS     C32      CTL2    -0.220000       12.0110           0
     10389 MEMB     90       SAPS     H2X      HAL2     0.900000E-01   1.00800           0
     10390 MEMB     90       SAPS     H2Y      HAL2     0.900000E-01   1.00800           0
     10391 MEMB     90       SAPS     C23      CTL2    -0.180000       12.0110           0
     10392 MEMB     90       SAPS     H3R      HAL2     0.900000E-01   1.00800           0
     10393 MEMB     90       SAPS     H3S      HAL2     0.900000E-01   1.00800           0
     10394 MEMB     90       SAPS     C24      CTL2    -0.180000       12.0110           0
     10395 MEMB     90       SAPS     H4R      HAL2     0.900000E-01   1.00800           0
     10396 MEMB     90       SAPS     H4S      HAL2     0.900000E-01   1.00800           0
     10397 MEMB     90       SAPS     C25      CEL1    -0.150000       12.0110           0
     10398 MEMB     90       SAPS     H5R      HEL1     0.150000       1.00800           0
     10399 MEMB     90       SAPS     C26      CEL1    -0.150000       12.0110           0
     10400 MEMB     90       SAPS     H6R      HEL1     0.150000       1.00800           0
     10401 MEMB     90       SAPS     C27      CTL2    -0.180000       12.0110           0
     10402 MEMB     90       SAPS     H7R      HAL2     0.900000E-01   1.00800           0
     10403 MEMB     90       SAPS     H7S      HAL2     0.900000E-01   1.00800           0
     10404 MEMB     90       SAPS     C28      CEL1    -0.150000       12.0110           0
     10405 MEMB     90       SAPS     H8R      HEL1     0.150000       1.00800           0
     10406 MEMB     90       SAPS     C29      CEL1    -0.150000       12.0110           0
     10407 MEMB     90       SAPS     H9R      HEL1     0.150000       1.00800           0
     10408 MEMB     90       SAPS     C210     CTL2    -0.180000       12.0110           0
     10409 MEMB     90       SAPS     H10R     HAL2     0.900000E-01   1.00800           0
     10410 MEMB     90       SAPS     H10S     HAL2     0.900000E-01   1.00800           0
     10411 MEMB     90       SAPS     C211     CEL1    -0.150000       12.0110           0
     10412 MEMB     90       SAPS     H11R     HEL1     0.150000       1.00800           0
     10413 MEMB     90       SAPS     C212     CEL1    -0.150000       12.0110           0
     10414 MEMB     90       SAPS     H12R     HEL1     0.150000       1.00800           0
     10415 MEMB     90       SAPS     C213     CTL2    -0.180000       12.0110           0
     10416 MEMB     90       SAPS     H13R     HAL2     0.900000E-01   1.00800           0
     10417 MEMB     90       SAPS     H13S     HAL2     0.900000E-01   1.00800           0
     10418 MEMB     90       SAPS     C214     CEL1    -0.150000       12.0110           0
     10419 MEMB     90       SAPS     H14R     HEL1     0.150000       1.00800           0
     10420 MEMB     90       SAPS     C215     CEL1    -0.150000       12.0110           0
     10421 MEMB     90       SAPS     H15R     HEL1     0.150000       1.00800           0
     10422 MEMB     90       SAPS     C216     CTL2    -0.180000       12.0110           0
     10423 MEMB     90       SAPS     H16R     HAL2     0.900000E-01   1.00800           0
     10424 MEMB     90       SAPS     H16S     HAL2     0.900000E-01   1.00800           0
     10425 MEMB     90       SAPS     C217     CTL2    -0.180000       12.0110           0
     10426 MEMB     90       SAPS     H17R     HAL2     0.900000E-01   1.00800           0
     10427 MEMB     90       SAPS     H17S     HAL2     0.900000E-01   1.00800           0
     10428 MEMB     90       SAPS     C218     CTL2    -0.180000       12.0110           0
     10429 MEMB     90       SAPS     H18R     HAL2     0.900000E-01   1.00800           0
     10430 MEMB     90       SAPS     H18S     HAL2     0.900000E-01   1.00800           0
     10431 MEMB     90       SAPS     C219     CTL2    -0.180000       12.0110           0
     10432 MEMB     90       SAPS     H19R     HAL2     0.900000E-01   1.00800           0
     10433 MEMB     90       SAPS     H19S     HAL2     0.900000E-01   1.00800           0
     10434 MEMB     90       SAPS     C220     CTL3    -0.270000       12.0110           0
     10435 MEMB     90       SAPS     H20R     HAL3     0.900000E-01   1.00800           0
     10436 MEMB     90       SAPS     H20S     HAL3     0.900000E-01   1.00800           0
     10437 MEMB     90       SAPS     H20T     HAL3     0.900000E-01   1.00800           0
     10438 MEMB     90       SAPS     C33      CTL2    -0.180000       12.0110           0
     10439 MEMB     90       SAPS     H3X      HAL2     0.900000E-01   1.00800           0
     10440 MEMB     90       SAPS     H3Y      HAL2     0.900000E-01   1.00800           0
     10441 MEMB     90       SAPS     C34      CTL2    -0.180000       12.0110           0
     10442 MEMB     90       SAPS     H4X      HAL2     0.900000E-01   1.00800           0
     10443 MEMB     90       SAPS     H4Y      HAL2     0.900000E-01   1.00800           0
     10444 MEMB     90       SAPS     C35      CTL2    -0.180000       12.0110           0
     10445 MEMB     90       SAPS     H5X      HAL2     0.900000E-01   1.00800           0
     10446 MEMB     90       SAPS     H5Y      HAL2     0.900000E-01   1.00800           0
     10447 MEMB     90       SAPS     C36      CTL2    -0.180000       12.0110           0
     10448 MEMB     90       SAPS     H6X      HAL2     0.900000E-01   1.00800           0
     10449 MEMB     90       SAPS     H6Y      HAL2     0.900000E-01   1.00800           0
     10450 MEMB     90       SAPS     C37      CTL2    -0.180000       12.0110           0
     10451 MEMB     90       SAPS     H7X      HAL2     0.900000E-01   1.00800           0
     10452 MEMB     90       SAPS     H7Y      HAL2     0.900000E-01   1.00800           0
     10453 MEMB     90       SAPS     C38      CTL2    -0.180000       12.0110           0
     10454 MEMB     90       SAPS     H8X      HAL2     0.900000E-01   1.00800           0
     10455 MEMB     90       SAPS     H8Y      HAL2     0.900000E-01   1.00800           0
     10456 MEMB     90       SAPS     C39      CTL2    -0.180000       12.0110           0
     10457 MEMB     90       SAPS     H9X      HAL2     0.900000E-01   1.00800           0
     10458 MEMB     90       SAPS     H9Y      HAL2     0.900000E-01   1.00800           0
     10459 MEMB     90       SAPS     C310     CTL2    -0.180000       12.0110           0
     10460 MEMB     90       SAPS     H10X     HAL2     0.900000E-01   1.00800           0
     10461 MEMB     90       SAPS     H10Y     HAL2     0.900000E-01   1.00800           0
     10462 MEMB     90       SAPS     C311     CTL2    -0.180000       12.0110           0
     10463 MEMB     90       SAPS     H11X     HAL2     0.900000E-01   1.00800           0
     10464 MEMB     90       SAPS     H11Y     HAL2     0.900000E-01   1.00800           0
     10465 MEMB     90       SAPS     C312     CTL2    -0.180000       12.0110           0
     10466 MEMB     90       SAPS     H12X     HAL2     0.900000E-01   1.00800           0
     10467 MEMB     90       SAPS     H12Y     HAL2     0.900000E-01   1.00800           0
     10468 MEMB     90       SAPS     C313     CTL2    -0.180000       12.0110           0
     10469 MEMB     90       SAPS     H13X     HAL2     0.900000E-01   1.00800           0
     10470 MEMB     90       SAPS     H13Y     HAL2     0.900000E-01   1.00800           0
     10471 MEMB     90       SAPS     C314     CTL2    -0.180000       12.0110           0
     10472 MEMB     90       SAPS     H14X     HAL2     0.900000E-01   1.00800           0
     10473 MEMB     90       SAPS     H14Y     HAL2     0.900000E-01   1.00800           0
     10474 MEMB     90       SAPS     C315     CTL2    -0.180000       12.0110           0
     10475 MEMB     90       SAPS     H15X     HAL2     0.900000E-01   1.00800           0
     10476 MEMB     90       SAPS     H15Y     HAL2     0.900000E-01   1.00800           0
     10477 MEMB     90       SAPS     C316     CTL2    -0.180000       12.0110           0
     10478 MEMB     90       SAPS     H16X     HAL2     0.900000E-01   1.00800           0
     10479 MEMB     90       SAPS     H16Y     HAL2     0.900000E-01   1.00800           0
     10480 MEMB     90       SAPS     C317     CTL2    -0.180000       12.0110           0
     10481 MEMB     90       SAPS     H17X     HAL2     0.900000E-01   1.00800           0
     10482 MEMB     90       SAPS     H17Y     HAL2     0.900000E-01   1.00800           0
     10483 MEMB     90       SAPS     C318     CTL3    -0.270000       12.0110           0
     10484 MEMB     90       SAPS     H18X     HAL3     0.900000E-01   1.00800           0
     10485 MEMB     90       SAPS     H18Y     HAL3     0.900000E-01   1.00800           0
     10486 MEMB     90       SAPS     H18Z     HAL3     0.900000E-01   1.00800           0
     10487 MEMB     91       SAPS     N        NH3L    -0.300000       14.0070           0
     10488 MEMB     91       SAPS     HN1      HCL      0.330000       1.00800           0
     10489 MEMB     91       SAPS     HN2      HCL      0.330000       1.00800           0
     10490 MEMB     91       SAPS     HN3      HCL      0.330000       1.00800           0
     10491 MEMB     91       SAPS     C12      CTL1     0.210000       12.0110           0
     10492 MEMB     91       SAPS     H12A     HBL      0.100000       1.00800           0
     10493 MEMB     91       SAPS     C13      CCL      0.340000       12.0110           0
     10494 MEMB     91       SAPS     O13A     OCL     -0.670000       15.9994           0
     10495 MEMB     91       SAPS     O13B     OCL     -0.670000       15.9994           0
     10496 MEMB     91       SAPS     C11      CTL2    -0.800000E-01   12.0110           0
     10497 MEMB     91       SAPS     H11A     HAL2     0.900000E-01   1.00800           0
     10498 MEMB     91       SAPS     H11B     HAL2     0.900000E-01   1.00800           0
     10499 MEMB     91       SAPS     P        PL        1.50000       30.9740           0
     10500 MEMB     91       SAPS     O13      O2L     -0.780000       15.9994           0
     10501 MEMB     91       SAPS     O14      O2L     -0.780000       15.9994           0
     10502 MEMB     91       SAPS     O12      OSLP    -0.570000       15.9994           0
     10503 MEMB     91       SAPS     O11      OSLP    -0.570000       15.9994           0
     10504 MEMB     91       SAPS     C1       CTL2    -0.800000E-01   12.0110           0
     10505 MEMB     91       SAPS     HA       HAL2     0.900000E-01   1.00800           0
     10506 MEMB     91       SAPS     HB       HAL2     0.900000E-01   1.00800           0
     10507 MEMB     91       SAPS     C2       CTL1     0.170000       12.0110           0
     10508 MEMB     91       SAPS     HS       HAL1     0.900000E-01   1.00800           0
     10509 MEMB     91       SAPS     O21      OSL     -0.490000       15.9994           0
     10510 MEMB     91       SAPS     C21      CL       0.900000       12.0110           0
     10511 MEMB     91       SAPS     O22      OBL     -0.630000       15.9994           0
     10512 MEMB     91       SAPS     C22      CTL2    -0.220000       12.0110           0
     10513 MEMB     91       SAPS     H2R      HAL2     0.900000E-01   1.00800           0
     10514 MEMB     91       SAPS     H2S      HAL2     0.900000E-01   1.00800           0
     10515 MEMB     91       SAPS     C3       CTL2     0.800000E-01   12.0110           0
     10516 MEMB     91       SAPS     HX       HAL2     0.900000E-01   1.00800           0
     10517 MEMB     91       SAPS     HY       HAL2     0.900000E-01   1.00800           0
     10518 MEMB     91       SAPS     O31      OSL     -0.490000       15.9994           0
     10519 MEMB     91       SAPS     C31      CL       0.900000       12.0110           0
     10520 MEMB     91       SAPS     O32      OBL     -0.630000       15.9994           0
     10521 MEMB     91       SAPS     C32      CTL2    -0.220000       12.0110           0
     10522 MEMB     91       SAPS     H2X      HAL2     0.900000E-01   1.00800           0
     10523 MEMB     91       SAPS     H2Y      HAL2     0.900000E-01   1.00800           0
     10524 MEMB     91       SAPS     C23      CTL2    -0.180000       12.0110           0
     10525 MEMB     91       SAPS     H3R      HAL2     0.900000E-01   1.00800           0
     10526 MEMB     91       SAPS     H3S      HAL2     0.900000E-01   1.00800           0
     10527 MEMB     91       SAPS     C24      CTL2    -0.180000       12.0110           0
     10528 MEMB     91       SAPS     H4R      HAL2     0.900000E-01   1.00800           0
     10529 MEMB     91       SAPS     H4S      HAL2     0.900000E-01   1.00800           0
     10530 MEMB     91       SAPS     C25      CEL1    -0.150000       12.0110           0
     10531 MEMB     91       SAPS     H5R      HEL1     0.150000       1.00800           0
     10532 MEMB     91       SAPS     C26      CEL1    -0.150000       12.0110           0
     10533 MEMB     91       SAPS     H6R      HEL1     0.150000       1.00800           0
     10534 MEMB     91       SAPS     C27      CTL2    -0.180000       12.0110           0
     10535 MEMB     91       SAPS     H7R      HAL2     0.900000E-01   1.00800           0
     10536 MEMB     91       SAPS     H7S      HAL2     0.900000E-01   1.00800           0
     10537 MEMB     91       SAPS     C28      CEL1    -0.150000       12.0110           0
     10538 MEMB     91       SAPS     H8R      HEL1     0.150000       1.00800           0
     10539 MEMB     91       SAPS     C29      CEL1    -0.150000       12.0110           0
     10540 MEMB     91       SAPS     H9R      HEL1     0.150000       1.00800           0
     10541 MEMB     91       SAPS     C210     CTL2    -0.180000       12.0110           0
     10542 MEMB     91       SAPS     H10R     HAL2     0.900000E-01   1.00800           0
     10543 MEMB     91       SAPS     H10S     HAL2     0.900000E-01   1.00800           0
     10544 MEMB     91       SAPS     C211     CEL1    -0.150000       12.0110           0
     10545 MEMB     91       SAPS     H11R     HEL1     0.150000       1.00800           0
     10546 MEMB     91       SAPS     C212     CEL1    -0.150000       12.0110           0
     10547 MEMB     91       SAPS     H12R     HEL1     0.150000       1.00800           0
     10548 MEMB     91       SAPS     C213     CTL2    -0.180000       12.0110           0
     10549 MEMB     91       SAPS     H13R     HAL2     0.900000E-01   1.00800           0
     10550 MEMB     91       SAPS     H13S     HAL2     0.900000E-01   1.00800           0
     10551 MEMB     91       SAPS     C214     CEL1    -0.150000       12.0110           0
     10552 MEMB     91       SAPS     H14R     HEL1     0.150000       1.00800           0
     10553 MEMB     91       SAPS     C215     CEL1    -0.150000       12.0110           0
     10554 MEMB     91       SAPS     H15R     HEL1     0.150000       1.00800           0
     10555 MEMB     91       SAPS     C216     CTL2    -0.180000       12.0110           0
     10556 MEMB     91       SAPS     H16R     HAL2     0.900000E-01   1.00800           0
     10557 MEMB     91       SAPS     H16S     HAL2     0.900000E-01   1.00800           0
     10558 MEMB     91       SAPS     C217     CTL2    -0.180000       12.0110           0
     10559 MEMB     91       SAPS     H17R     HAL2     0.900000E-01   1.00800           0
     10560 MEMB     91       SAPS     H17S     HAL2     0.900000E-01   1.00800           0
     10561 MEMB     91       SAPS     C218     CTL2    -0.180000       12.0110           0
     10562 MEMB     91       SAPS     H18R     HAL2     0.900000E-01   1.00800           0
     10563 MEMB     91       SAPS     H18S     HAL2     0.900000E-01   1.00800           0
     10564 MEMB     91       SAPS     C219     CTL2    -0.180000       12.0110           0
     10565 MEMB     91       SAPS     H19R     HAL2     0.900000E-01   1.00800           0
     10566 MEMB     91       SAPS     H19S     HAL2     0.900000E-01   1.00800           0
     10567 MEMB     91       SAPS     C220     CTL3    -0.270000       12.0110           0
     10568 MEMB     91       SAPS     H20R     HAL3     0.900000E-01   1.00800           0
     10569 MEMB     91       SAPS     H20S     HAL3     0.900000E-01   1.00800           0
     10570 MEMB     91       SAPS     H20T     HAL3     0.900000E-01   1.00800           0
     10571 MEMB     91       SAPS     C33      CTL2    -0.180000       12.0110           0
     10572 MEMB     91       SAPS     H3X      HAL2     0.900000E-01   1.00800           0
     10573 MEMB     91       SAPS     H3Y      HAL2     0.900000E-01   1.00800           0
     10574 MEMB     91       SAPS     C34      CTL2    -0.180000       12.0110           0
     10575 MEMB     91       SAPS     H4X      HAL2     0.900000E-01   1.00800           0
     10576 MEMB     91       SAPS     H4Y      HAL2     0.900000E-01   1.00800           0
     10577 MEMB     91       SAPS     C35      CTL2    -0.180000       12.0110           0
     10578 MEMB     91       SAPS     H5X      HAL2     0.900000E-01   1.00800           0
     10579 MEMB     91       SAPS     H5Y      HAL2     0.900000E-01   1.00800           0
     10580 MEMB     91       SAPS     C36      CTL2    -0.180000       12.0110           0
     10581 MEMB     91       SAPS     H6X      HAL2     0.900000E-01   1.00800           0
     10582 MEMB     91       SAPS     H6Y      HAL2     0.900000E-01   1.00800           0
     10583 MEMB     91       SAPS     C37      CTL2    -0.180000       12.0110           0
     10584 MEMB     91       SAPS     H7X      HAL2     0.900000E-01   1.00800           0
     10585 MEMB     91       SAPS     H7Y      HAL2     0.900000E-01   1.00800           0
     10586 MEMB     91       SAPS     C38      CTL2    -0.180000       12.0110           0
     10587 MEMB     91       SAPS     H8X      HAL2     0.900000E-01   1.00800           0
     10588 MEMB     91       SAPS     H8Y      HAL2     0.900000E-01   1.00800           0
     10589 MEMB     91       SAPS     C39      CTL2    -0.180000       12.0110           0
     10590 MEMB     91       SAPS     H9X      HAL2     0.900000E-01   1.00800           0
     10591 MEMB     91       SAPS     H9Y      HAL2     0.900000E-01   1.00800           0
     10592 MEMB     91       SAPS     C310     CTL2    -0.180000       12.0110           0
     10593 MEMB     91       SAPS     H10X     HAL2     0.900000E-01   1.00800           0
     10594 MEMB     91       SAPS     H10Y     HAL2     0.900000E-01   1.00800           0
     10595 MEMB     91       SAPS     C311     CTL2    -0.180000       12.0110           0
     10596 MEMB     91       SAPS     H11X     HAL2     0.900000E-01   1.00800           0
     10597 MEMB     91       SAPS     H11Y     HAL2     0.900000E-01   1.00800           0
     10598 MEMB     91       SAPS     C312     CTL2    -0.180000       12.0110           0
     10599 MEMB     91       SAPS     H12X     HAL2     0.900000E-01   1.00800           0
     10600 MEMB     91       SAPS     H12Y     HAL2     0.900000E-01   1.00800           0
     10601 MEMB     91       SAPS     C313     CTL2    -0.180000       12.0110           0
     10602 MEMB     91       SAPS     H13X     HAL2     0.900000E-01   1.00800           0
     10603 MEMB     91       SAPS     H13Y     HAL2     0.900000E-01   1.00800           0
     10604 MEMB     91       SAPS     C314     CTL2    -0.180000       12.0110           0
     10605 MEMB     91       SAPS     H14X     HAL2     0.900000E-01   1.00800           0
     10606 MEMB     91       SAPS     H14Y     HAL2     0.900000E-01   1.00800           0
     10607 MEMB     91       SAPS     C315     CTL2    -0.180000       12.0110           0
     10608 MEMB     91       SAPS     H15X     HAL2     0.900000E-01   1.00800           0
     10609 MEMB     91       SAPS     H15Y     HAL2     0.900000E-01   1.00800           0
     10610 MEMB     91       SAPS     C316     CTL2    -0.180000       12.0110           0
     10611 MEMB     91       SAPS     H16X     HAL2     0.900000E-01   1.00800           0
     10612 MEMB     91       SAPS     H16Y     HAL2     0.900000E-01   1.00800           0
     10613 MEMB     91       SAPS     C317     CTL2    -0.180000       12.0110           0
     10614 MEMB     91       SAPS     H17X     HAL2     0.900000E-01   1.00800           0
     10615 MEMB     91       SAPS     H17Y     HAL2     0.900000E-01   1.00800           0
     10616 MEMB     91       SAPS     C318     CTL3    -0.270000       12.0110           0
     10617 MEMB     91       SAPS     H18X     HAL3     0.900000E-01   1.00800           0
     10618 MEMB     91       SAPS     H18Y     HAL3     0.900000E-01   1.00800           0
     10619 MEMB     91       SAPS     H18Z     HAL3     0.900000E-01   1.00800           0
     10620 MEMB     92       CHL1     C3       CRL1     0.140000       12.0110           0
     10621 MEMB     92       CHL1     H3       HGA1     0.900000E-01   1.00800           0
     10622 MEMB     92       CHL1     O3       OHL     -0.660000       15.9994           0
     10623 MEMB     92       CHL1     H3'      HOL      0.430000       1.00800           0
     10624 MEMB     92       CHL1     C4       CRL2    -0.180000       12.0110           0
     10625 MEMB     92       CHL1     H4A      HGA2     0.900000E-01   1.00800           0
     10626 MEMB     92       CHL1     H4B      HGA2     0.900000E-01   1.00800           0
     10627 MEMB     92       CHL1     C5       CEL1      0.00000       12.0110           0
     10628 MEMB     92       CHL1     C6       CEL1    -0.150000       12.0110           0
     10629 MEMB     92       CHL1     H6       HEL1     0.150000       1.00800           0
     10630 MEMB     92       CHL1     C7       CRL2    -0.180000       12.0110           0
     10631 MEMB     92       CHL1     H7A      HGA2     0.900000E-01   1.00800           0
     10632 MEMB     92       CHL1     H7B      HGA2     0.900000E-01   1.00800           0
     10633 MEMB     92       CHL1     C8       CRL1    -0.900000E-01   12.0110           0
     10634 MEMB     92       CHL1     H8       HGA1     0.900000E-01   1.00800           0
     10635 MEMB     92       CHL1     C14      CRL1    -0.900000E-01   12.0110           0
     10636 MEMB     92       CHL1     H14      HGA1     0.900000E-01   1.00800           0
     10637 MEMB     92       CHL1     C15      CRL2    -0.180000       12.0110           0
     10638 MEMB     92       CHL1     H15A     HGA2     0.900000E-01   1.00800           0
     10639 MEMB     92       CHL1     H15B     HGA2     0.900000E-01   1.00800           0
     10640 MEMB     92       CHL1     C16      CRL2    -0.180000       12.0110           0
     10641 MEMB     92       CHL1     H16A     HGA2     0.900000E-01   1.00800           0
     10642 MEMB     92       CHL1     H16B     HGA2     0.900000E-01   1.00800           0
     10643 MEMB     92       CHL1     C17      CRL1    -0.900000E-01   12.0110           0
     10644 MEMB     92       CHL1     H17      HGA1     0.900000E-01   1.00800           0
     10645 MEMB     92       CHL1     C13      CRL1      0.00000       12.0110           0
     10646 MEMB     92       CHL1     C18      CTL3    -0.270000       12.0110           0
     10647 MEMB     92       CHL1     H18A     HAL3     0.900000E-01   1.00800           0
     10648 MEMB     92       CHL1     H18B     HAL3     0.900000E-01   1.00800           0
     10649 MEMB     92       CHL1     H18C     HAL3     0.900000E-01   1.00800           0
     10650 MEMB     92       CHL1     C12      CRL2    -0.180000       12.0110           0
     10651 MEMB     92       CHL1     H12A     HGA2     0.900000E-01   1.00800           0
     10652 MEMB     92       CHL1     H12B     HGA2     0.900000E-01   1.00800           0
     10653 MEMB     92       CHL1     C11      CRL2    -0.180000       12.0110           0
     10654 MEMB     92       CHL1     H11A     HGA2     0.900000E-01   1.00800           0
     10655 MEMB     92       CHL1     H11B     HGA2     0.900000E-01   1.00800           0
     10656 MEMB     92       CHL1     C9       CRL1    -0.900000E-01   12.0110           0
     10657 MEMB     92       CHL1     H9       HGA1     0.900000E-01   1.00800           0
     10658 MEMB     92       CHL1     C10      CRL1      0.00000       12.0110           0
     10659 MEMB     92       CHL1     C19      CTL3    -0.270000       12.0110           0
     10660 MEMB     92       CHL1     H19A     HAL3     0.900000E-01   1.00800           0
     10661 MEMB     92       CHL1     H19B     HAL3     0.900000E-01   1.00800           0
     10662 MEMB     92       CHL1     H19C     HAL3     0.900000E-01   1.00800           0
     10663 MEMB     92       CHL1     C1       CRL2    -0.180000       12.0110           0
     10664 MEMB     92       CHL1     H1A      HGA2     0.900000E-01   1.00800           0
     10665 MEMB     92       CHL1     H1B      HGA2     0.900000E-01   1.00800           0
     10666 MEMB     92       CHL1     C2       CRL2    -0.180000       12.0110           0
     10667 MEMB     92       CHL1     H2A      HGA2     0.900000E-01   1.00800           0
     10668 MEMB     92       CHL1     H2B      HGA2     0.900000E-01   1.00800           0
     10669 MEMB     92       CHL1     C20      CTL1    -0.900000E-01   12.0110           0
     10670 MEMB     92       CHL1     H20      HAL1     0.900000E-01   1.00800           0
     10671 MEMB     92       CHL1     C21      CTL3    -0.270000       12.0110           0
     10672 MEMB     92       CHL1     H21A     HAL3     0.900000E-01   1.00800           0
     10673 MEMB     92       CHL1     H21B     HAL3     0.900000E-01   1.00800           0
     10674 MEMB     92       CHL1     H21C     HAL3     0.900000E-01   1.00800           0
     10675 MEMB     92       CHL1     C22      CTL2    -0.180000       12.0110           0
     10676 MEMB     92       CHL1     H22A     HAL2     0.900000E-01   1.00800           0
     10677 MEMB     92       CHL1     H22B     HAL2     0.900000E-01   1.00800           0
     10678 MEMB     92       CHL1     C23      CTL2    -0.180000       12.0110           0
     10679 MEMB     92       CHL1     H23A     HAL2     0.900000E-01   1.00800           0
     10680 MEMB     92       CHL1     H23B     HAL2     0.900000E-01   1.00800           0
     10681 MEMB     92       CHL1     C24      CTL2    -0.180000       12.0110           0
     10682 MEMB     92       CHL1     H24A     HAL2     0.900000E-01   1.00800           0
     10683 MEMB     92       CHL1     H24B     HAL2     0.900000E-01   1.00800           0
     10684 MEMB     92       CHL1     C25      CTL1    -0.900000E-01   12.0110           0
     10685 MEMB     92       CHL1     H25      HAL1     0.900000E-01   1.00800           0
     10686 MEMB     92       CHL1     C26      CTL3    -0.270000       12.0110           0
     10687 MEMB     92       CHL1     H26A     HAL3     0.900000E-01   1.00800           0
     10688 MEMB     92       CHL1     H26B     HAL3     0.900000E-01   1.00800           0
     10689 MEMB     92       CHL1     H26C     HAL3     0.900000E-01   1.00800           0
     10690 MEMB     92       CHL1     C27      CTL3    -0.270000       12.0110           0
     10691 MEMB     92       CHL1     H27A     HAL3     0.900000E-01   1.00800           0
     10692 MEMB     92       CHL1     H27B     HAL3     0.900000E-01   1.00800           0
     10693 MEMB     92       CHL1     H27C     HAL3     0.900000E-01   1.00800           0
     10694 MEMB     93       CHL1     C3       CRL1     0.140000       12.0110           0
     10695 MEMB     93       CHL1     H3       HGA1     0.900000E-01   1.00800           0
     10696 MEMB     93       CHL1     O3       OHL     -0.660000       15.9994           0
     10697 MEMB     93       CHL1     H3'      HOL      0.430000       1.00800           0
     10698 MEMB     93       CHL1     C4       CRL2    -0.180000       12.0110           0
     10699 MEMB     93       CHL1     H4A      HGA2     0.900000E-01   1.00800           0
     10700 MEMB     93       CHL1     H4B      HGA2     0.900000E-01   1.00800           0
     10701 MEMB     93       CHL1     C5       CEL1      0.00000       12.0110           0
     10702 MEMB     93       CHL1     C6       CEL1    -0.150000       12.0110           0
     10703 MEMB     93       CHL1     H6       HEL1     0.150000       1.00800           0
     10704 MEMB     93       CHL1     C7       CRL2    -0.180000       12.0110           0
     10705 MEMB     93       CHL1     H7A      HGA2     0.900000E-01   1.00800           0
     10706 MEMB     93       CHL1     H7B      HGA2     0.900000E-01   1.00800           0
     10707 MEMB     93       CHL1     C8       CRL1    -0.900000E-01   12.0110           0
     10708 MEMB     93       CHL1     H8       HGA1     0.900000E-01   1.00800           0
     10709 MEMB     93       CHL1     C14      CRL1    -0.900000E-01   12.0110           0
     10710 MEMB     93       CHL1     H14      HGA1     0.900000E-01   1.00800           0
     10711 MEMB     93       CHL1     C15      CRL2    -0.180000       12.0110           0
     10712 MEMB     93       CHL1     H15A     HGA2     0.900000E-01   1.00800           0
     10713 MEMB     93       CHL1     H15B     HGA2     0.900000E-01   1.00800           0
     10714 MEMB     93       CHL1     C16      CRL2    -0.180000       12.0110           0
     10715 MEMB     93       CHL1     H16A     HGA2     0.900000E-01   1.00800           0
     10716 MEMB     93       CHL1     H16B     HGA2     0.900000E-01   1.00800           0
     10717 MEMB     93       CHL1     C17      CRL1    -0.900000E-01   12.0110           0
     10718 MEMB     93       CHL1     H17      HGA1     0.900000E-01   1.00800           0
     10719 MEMB     93       CHL1     C13      CRL1      0.00000       12.0110           0
     10720 MEMB     93       CHL1     C18      CTL3    -0.270000       12.0110           0
     10721 MEMB     93       CHL1     H18A     HAL3     0.900000E-01   1.00800           0
     10722 MEMB     93       CHL1     H18B     HAL3     0.900000E-01   1.00800           0
     10723 MEMB     93       CHL1     H18C     HAL3     0.900000E-01   1.00800           0
     10724 MEMB     93       CHL1     C12      CRL2    -0.180000       12.0110           0
     10725 MEMB     93       CHL1     H12A     HGA2     0.900000E-01   1.00800           0
     10726 MEMB     93       CHL1     H12B     HGA2     0.900000E-01   1.00800           0
     10727 MEMB     93       CHL1     C11      CRL2    -0.180000       12.0110           0
     10728 MEMB     93       CHL1     H11A     HGA2     0.900000E-01   1.00800           0
     10729 MEMB     93       CHL1     H11B     HGA2     0.900000E-01   1.00800           0
     10730 MEMB     93       CHL1     C9       CRL1    -0.900000E-01   12.0110           0
     10731 MEMB     93       CHL1     H9       HGA1     0.900000E-01   1.00800           0
     10732 MEMB     93       CHL1     C10      CRL1      0.00000       12.0110           0
     10733 MEMB     93       CHL1     C19      CTL3    -0.270000       12.0110           0
     10734 MEMB     93       CHL1     H19A     HAL3     0.900000E-01   1.00800           0
     10735 MEMB     93       CHL1     H19B     HAL3     0.900000E-01   1.00800           0
     10736 MEMB     93       CHL1     H19C     HAL3     0.900000E-01   1.00800           0
     10737 MEMB     93       CHL1     C1       CRL2    -0.180000       12.0110           0
     10738 MEMB     93       CHL1     H1A      HGA2     0.900000E-01   1.00800           0
     10739 MEMB     93       CHL1     H1B      HGA2     0.900000E-01   1.00800           0
     10740 MEMB     93       CHL1     C2       CRL2    -0.180000       12.0110           0
     10741 MEMB     93       CHL1     H2A      HGA2     0.900000E-01   1.00800           0
     10742 MEMB     93       CHL1     H2B      HGA2     0.900000E-01   1.00800           0
     10743 MEMB     93       CHL1     C20      CTL1    -0.900000E-01   12.0110           0
     10744 MEMB     93       CHL1     H20      HAL1     0.900000E-01   1.00800           0
     10745 MEMB     93       CHL1     C21      CTL3    -0.270000       12.0110           0
     10746 MEMB     93       CHL1     H21A     HAL3     0.900000E-01   1.00800           0
     10747 MEMB     93       CHL1     H21B     HAL3     0.900000E-01   1.00800           0
     10748 MEMB     93       CHL1     H21C     HAL3     0.900000E-01   1.00800           0
     10749 MEMB     93       CHL1     C22      CTL2    -0.180000       12.0110           0
     10750 MEMB     93       CHL1     H22A     HAL2     0.900000E-01   1.00800           0
     10751 MEMB     93       CHL1     H22B     HAL2     0.900000E-01   1.00800           0
     10752 MEMB     93       CHL1     C23      CTL2    -0.180000       12.0110           0
     10753 MEMB     93       CHL1     H23A     HAL2     0.900000E-01   1.00800           0
     10754 MEMB     93       CHL1     H23B     HAL2     0.900000E-01   1.00800           0
     10755 MEMB     93       CHL1     C24      CTL2    -0.180000       12.0110           0
     10756 MEMB     93       CHL1     H24A     HAL2     0.900000E-01   1.00800           0
     10757 MEMB     93       CHL1     H24B     HAL2     0.900000E-01   1.00800           0
     10758 MEMB     93       CHL1     C25      CTL1    -0.900000E-01   12.0110           0
     10759 MEMB     93       CHL1     H25      HAL1     0.900000E-01   1.00800           0
     10760 MEMB     93       CHL1     C26      CTL3    -0.270000       12.0110           0
     10761 MEMB     93       CHL1     H26A     HAL3     0.900000E-01   1.00800           0
     10762 MEMB     93       CHL1     H26B     HAL3     0.900000E-01   1.00800           0
     10763 MEMB     93       CHL1     H26C     HAL3     0.900000E-01   1.00800           0
     10764 MEMB     93       CHL1     C27      CTL3    -0.270000       12.0110           0
     10765 MEMB     93       CHL1     H27A     HAL3     0.900000E-01   1.00800           0
     10766 MEMB     93       CHL1     H27B     HAL3     0.900000E-01   1.00800           0
     10767 MEMB     93       CHL1     H27C     HAL3     0.900000E-01   1.00800           0
     10768 MEMB     94       SOPE     N        NH3L    -0.300000       14.0070           0
     10769 MEMB     94       SOPE     HN1      HCL      0.330000       1.00800           0
     10770 MEMB     94       SOPE     HN2      HCL      0.330000       1.00800           0
     10771 MEMB     94       SOPE     HN3      HCL      0.330000       1.00800           0
     10772 MEMB     94       SOPE     C12      CTL2     0.130000       12.0110           0
     10773 MEMB     94       SOPE     H12A     HAL2     0.900000E-01   1.00800           0
     10774 MEMB     94       SOPE     H12B     HAL2     0.900000E-01   1.00800           0
     10775 MEMB     94       SOPE     C11      CTL2    -0.800000E-01   12.0110           0
     10776 MEMB     94       SOPE     H11A     HAL2     0.900000E-01   1.00800           0
     10777 MEMB     94       SOPE     H11B     HAL2     0.900000E-01   1.00800           0
     10778 MEMB     94       SOPE     P        PL        1.50000       30.9740           0
     10779 MEMB     94       SOPE     O13      O2L     -0.780000       15.9994           0
     10780 MEMB     94       SOPE     O14      O2L     -0.780000       15.9994           0
     10781 MEMB     94       SOPE     O12      OSLP    -0.570000       15.9994           0
     10782 MEMB     94       SOPE     O11      OSLP    -0.570000       15.9994           0
     10783 MEMB     94       SOPE     C1       CTL2    -0.800000E-01   12.0110           0
     10784 MEMB     94       SOPE     HA       HAL2     0.900000E-01   1.00800           0
     10785 MEMB     94       SOPE     HB       HAL2     0.900000E-01   1.00800           0
     10786 MEMB     94       SOPE     C2       CTL1     0.170000       12.0110           0
     10787 MEMB     94       SOPE     HS       HAL1     0.900000E-01   1.00800           0
     10788 MEMB     94       SOPE     O21      OSL     -0.490000       15.9994           0
     10789 MEMB     94       SOPE     C21      CL       0.900000       12.0110           0
     10790 MEMB     94       SOPE     O22      OBL     -0.630000       15.9994           0
     10791 MEMB     94       SOPE     C22      CTL2    -0.220000       12.0110           0
     10792 MEMB     94       SOPE     H2R      HAL2     0.900000E-01   1.00800           0
     10793 MEMB     94       SOPE     H2S      HAL2     0.900000E-01   1.00800           0
     10794 MEMB     94       SOPE     C3       CTL2     0.800000E-01   12.0110           0
     10795 MEMB     94       SOPE     HX       HAL2     0.900000E-01   1.00800           0
     10796 MEMB     94       SOPE     HY       HAL2     0.900000E-01   1.00800           0
     10797 MEMB     94       SOPE     O31      OSL     -0.490000       15.9994           0
     10798 MEMB     94       SOPE     C31      CL       0.900000       12.0110           0
     10799 MEMB     94       SOPE     O32      OBL     -0.630000       15.9994           0
     10800 MEMB     94       SOPE     C32      CTL2    -0.220000       12.0110           0
     10801 MEMB     94       SOPE     H2X      HAL2     0.900000E-01   1.00800           0
     10802 MEMB     94       SOPE     H2Y      HAL2     0.900000E-01   1.00800           0
     10803 MEMB     94       SOPE     C23      CTL2    -0.180000       12.0110           0
     10804 MEMB     94       SOPE     H3R      HAL2     0.900000E-01   1.00800           0
     10805 MEMB     94       SOPE     H3S      HAL2     0.900000E-01   1.00800           0
     10806 MEMB     94       SOPE     C24      CTL2    -0.180000       12.0110           0
     10807 MEMB     94       SOPE     H4R      HAL2     0.900000E-01   1.00800           0
     10808 MEMB     94       SOPE     H4S      HAL2     0.900000E-01   1.00800           0
     10809 MEMB     94       SOPE     C25      CTL2    -0.180000       12.0110           0
     10810 MEMB     94       SOPE     H5R      HAL2     0.900000E-01   1.00800           0
     10811 MEMB     94       SOPE     H5S      HAL2     0.900000E-01   1.00800           0
     10812 MEMB     94       SOPE     C26      CTL2    -0.180000       12.0110           0
     10813 MEMB     94       SOPE     H6R      HAL2     0.900000E-01   1.00800           0
     10814 MEMB     94       SOPE     H6S      HAL2     0.900000E-01   1.00800           0
     10815 MEMB     94       SOPE     C27      CTL2    -0.180000       12.0110           0
     10816 MEMB     94       SOPE     H7R      HAL2     0.900000E-01   1.00800           0
     10817 MEMB     94       SOPE     H7S      HAL2     0.900000E-01   1.00800           0
     10818 MEMB     94       SOPE     C28      CTL2    -0.180000       12.0110           0
     10819 MEMB     94       SOPE     H8R      HAL2     0.900000E-01   1.00800           0
     10820 MEMB     94       SOPE     H8S      HAL2     0.900000E-01   1.00800           0
     10821 MEMB     94       SOPE     C29      CEL1    -0.150000       12.0110           0
     10822 MEMB     94       SOPE     H91      HEL1     0.150000       1.00800           0
     10823 MEMB     94       SOPE     C210     CEL1    -0.150000       12.0110           0
     10824 MEMB     94       SOPE     H101     HEL1     0.150000       1.00800           0
     10825 MEMB     94       SOPE     C211     CTL2    -0.180000       12.0110           0
     10826 MEMB     94       SOPE     H11R     HAL2     0.900000E-01   1.00800           0
     10827 MEMB     94       SOPE     H11S     HAL2     0.900000E-01   1.00800           0
     10828 MEMB     94       SOPE     C212     CTL2    -0.180000       12.0110           0
     10829 MEMB     94       SOPE     H12R     HAL2     0.900000E-01   1.00800           0
     10830 MEMB     94       SOPE     H12S     HAL2     0.900000E-01   1.00800           0
     10831 MEMB     94       SOPE     C213     CTL2    -0.180000       12.0110           0
     10832 MEMB     94       SOPE     H13R     HAL2     0.900000E-01   1.00800           0
     10833 MEMB     94       SOPE     H13S     HAL2     0.900000E-01   1.00800           0
     10834 MEMB     94       SOPE     C214     CTL2    -0.180000       12.0110           0
     10835 MEMB     94       SOPE     H14R     HAL2     0.900000E-01   1.00800           0
     10836 MEMB     94       SOPE     H14S     HAL2     0.900000E-01   1.00800           0
     10837 MEMB     94       SOPE     C215     CTL2    -0.180000       12.0110           0
     10838 MEMB     94       SOPE     H15R     HAL2     0.900000E-01   1.00800           0
     10839 MEMB     94       SOPE     H15S     HAL2     0.900000E-01   1.00800           0
     10840 MEMB     94       SOPE     C216     CTL2    -0.180000       12.0110           0
     10841 MEMB     94       SOPE     H16R     HAL2     0.900000E-01   1.00800           0
     10842 MEMB     94       SOPE     H16S     HAL2     0.900000E-01   1.00800           0
     10843 MEMB     94       SOPE     C217     CTL2    -0.180000       12.0110           0
     10844 MEMB     94       SOPE     H17R     HAL2     0.900000E-01   1.00800           0
     10845 MEMB     94       SOPE     H17S     HAL2     0.900000E-01   1.00800           0
     10846 MEMB     94       SOPE     C218     CTL3    -0.270000       12.0110           0
     10847 MEMB     94       SOPE     H18R     HAL3     0.900000E-01   1.00800           0
     10848 MEMB     94       SOPE     H18S     HAL3     0.900000E-01   1.00800           0
     10849 MEMB     94       SOPE     H18T     HAL3     0.900000E-01   1.00800           0
     10850 MEMB     94       SOPE     C33      CTL2    -0.180000       12.0110           0
     10851 MEMB     94       SOPE     H3X      HAL2     0.900000E-01   1.00800           0
     10852 MEMB     94       SOPE     H3Y      HAL2     0.900000E-01   1.00800           0
     10853 MEMB     94       SOPE     C34      CTL2    -0.180000       12.0110           0
     10854 MEMB     94       SOPE     H4X      HAL2     0.900000E-01   1.00800           0
     10855 MEMB     94       SOPE     H4Y      HAL2     0.900000E-01   1.00800           0
     10856 MEMB     94       SOPE     C35      CTL2    -0.180000       12.0110           0
     10857 MEMB     94       SOPE     H5X      HAL2     0.900000E-01   1.00800           0
     10858 MEMB     94       SOPE     H5Y      HAL2     0.900000E-01   1.00800           0
     10859 MEMB     94       SOPE     C36      CTL2    -0.180000       12.0110           0
     10860 MEMB     94       SOPE     H6X      HAL2     0.900000E-01   1.00800           0
     10861 MEMB     94       SOPE     H6Y      HAL2     0.900000E-01   1.00800           0
     10862 MEMB     94       SOPE     C37      CTL2    -0.180000       12.0110           0
     10863 MEMB     94       SOPE     H7X      HAL2     0.900000E-01   1.00800           0
     10864 MEMB     94       SOPE     H7Y      HAL2     0.900000E-01   1.00800           0
     10865 MEMB     94       SOPE     C38      CTL2    -0.180000       12.0110           0
     10866 MEMB     94       SOPE     H8X      HAL2     0.900000E-01   1.00800           0
     10867 MEMB     94       SOPE     H8Y      HAL2     0.900000E-01   1.00800           0
     10868 MEMB     94       SOPE     C39      CTL2    -0.180000       12.0110           0
     10869 MEMB     94       SOPE     H9X      HAL2     0.900000E-01   1.00800           0
     10870 MEMB     94       SOPE     H9Y      HAL2     0.900000E-01   1.00800           0
     10871 MEMB     94       SOPE     C310     CTL2    -0.180000       12.0110           0
     10872 MEMB     94       SOPE     H10X     HAL2     0.900000E-01   1.00800           0
     10873 MEMB     94       SOPE     H10Y     HAL2     0.900000E-01   1.00800           0
     10874 MEMB     94       SOPE     C311     CTL2    -0.180000       12.0110           0
     10875 MEMB     94       SOPE     H11X     HAL2     0.900000E-01   1.00800           0
     10876 MEMB     94       SOPE     H11Y     HAL2     0.900000E-01   1.00800           0
     10877 MEMB     94       SOPE     C312     CTL2    -0.180000       12.0110           0
     10878 MEMB     94       SOPE     H12X     HAL2     0.900000E-01   1.00800           0
     10879 MEMB     94       SOPE     H12Y     HAL2     0.900000E-01   1.00800           0
     10880 MEMB     94       SOPE     C313     CTL2    -0.180000       12.0110           0
     10881 MEMB     94       SOPE     H13X     HAL2     0.900000E-01   1.00800           0
     10882 MEMB     94       SOPE     H13Y     HAL2     0.900000E-01   1.00800           0
     10883 MEMB     94       SOPE     C314     CTL2    -0.180000       12.0110           0
     10884 MEMB     94       SOPE     H14X     HAL2     0.900000E-01   1.00800           0
     10885 MEMB     94       SOPE     H14Y     HAL2     0.900000E-01   1.00800           0
     10886 MEMB     94       SOPE     C315     CTL2    -0.180000       12.0110           0
     10887 MEMB     94       SOPE     H15X     HAL2     0.900000E-01   1.00800           0
     10888 MEMB     94       SOPE     H15Y     HAL2     0.900000E-01   1.00800           0
     10889 MEMB     94       SOPE     C316     CTL2    -0.180000       12.0110           0
     10890 MEMB     94       SOPE     H16X     HAL2     0.900000E-01   1.00800           0
     10891 MEMB     94       SOPE     H16Y     HAL2     0.900000E-01   1.00800           0
     10892 MEMB     94       SOPE     C317     CTL2    -0.180000       12.0110           0
     10893 MEMB     94       SOPE     H17X     HAL2     0.900000E-01   1.00800           0
     10894 MEMB     94       SOPE     H17Y     HAL2     0.900000E-01   1.00800           0
     10895 MEMB     94       SOPE     C318     CTL3    -0.270000       12.0110           0
     10896 MEMB     94       SOPE     H18X     HAL3     0.900000E-01   1.00800           0
     10897 MEMB     94       SOPE     H18Y     HAL3     0.900000E-01   1.00800           0
     10898 MEMB     94       SOPE     H18Z     HAL3     0.900000E-01   1.00800           0
     10899 MEMB     95       OSM      N        NTL     -0.600000       14.0070           0
     10900 MEMB     95       OSM      C15      CTL5    -0.350000       12.0110           0
     10901 MEMB     95       OSM      H15A     HL       0.250000       1.00800           0
     10902 MEMB     95       OSM      H15B     HL       0.250000       1.00800           0
     10903 MEMB     95       OSM      H15C     HL       0.250000       1.00800           0
     10904 MEMB     95       OSM      C14      CTL5    -0.350000       12.0110           0
     10905 MEMB     95       OSM      H14A     HL       0.250000       1.00800           0
     10906 MEMB     95       OSM      H14B     HL       0.250000       1.00800           0
     10907 MEMB     95       OSM      H14C     HL       0.250000       1.00800           0
     10908 MEMB     95       OSM      C13      CTL5    -0.350000       12.0110           0
     10909 MEMB     95       OSM      H13A     HL       0.250000       1.00800           0
     10910 MEMB     95       OSM      H13B     HL       0.250000       1.00800           0
     10911 MEMB     95       OSM      H13C     HL       0.250000       1.00800           0
     10912 MEMB     95       OSM      C12      CTL2    -0.100000       12.0110           0
     10913 MEMB     95       OSM      H12A     HL       0.250000       1.00800           0
     10914 MEMB     95       OSM      H12B     HL       0.250000       1.00800           0
     10915 MEMB     95       OSM      C11      CTL2    -0.800000E-01   12.0110           0
     10916 MEMB     95       OSM      H11A     HAL2     0.900000E-01   1.00800           0
     10917 MEMB     95       OSM      H11B     HAL2     0.900000E-01   1.00800           0
     10918 MEMB     95       OSM      P        PL        1.50000       30.9740           0
     10919 MEMB     95       OSM      O13      O2L     -0.780000       15.9994           0
     10920 MEMB     95       OSM      O14      O2L     -0.780000       15.9994           0
     10921 MEMB     95       OSM      O11      OSLP    -0.570000       15.9994           0
     10922 MEMB     95       OSM      O12      OSLP    -0.570000       15.9994           0
     10923 MEMB     95       OSM      C1S      CTL2    -0.800000E-01   12.0110           0
     10924 MEMB     95       OSM      H1S      HAL2     0.900000E-01   1.00800           0
     10925 MEMB     95       OSM      H1T      HAL2     0.900000E-01   1.00800           0
     10926 MEMB     95       OSM      NF       NHL     -0.700000       14.0070           0
     10927 MEMB     95       OSM      HNF      H        0.350000       1.00800           0
     10928 MEMB     95       OSM      C2S      CTL1     0.300000       12.0110           0
     10929 MEMB     95       OSM      H2S      HAL1     0.500000E-01   1.00800           0
     10930 MEMB     95       OSM      C3S      CTO1     0.500000       12.0110           0
     10931 MEMB     95       OSM      H3S      HAL1    -0.110000       1.00800           0
     10932 MEMB     95       OSM      O3       OHL     -0.690000       15.9994           0
     10933 MEMB     95       OSM      HO3      HOL      0.300000       1.00800           0
     10934 MEMB     95       OSM      C4S      CEL3    -0.150000       12.0110           0
     10935 MEMB     95       OSM      H4S      HEL1     0.150000       1.00800           0
     10936 MEMB     95       OSM      C5S      CEL3    -0.150000       12.0110           0
     10937 MEMB     95       OSM      H5S      HEL1     0.150000       1.00800           0
     10938 MEMB     95       OSM      C6S      CTL2    -0.180000       12.0110           0
     10939 MEMB     95       OSM      H6S      HAL2     0.900000E-01   1.00800           0
     10940 MEMB     95       OSM      H6T      HAL2     0.900000E-01   1.00800           0
     10941 MEMB     95       OSM      C7S      CTL2    -0.180000       12.0110           0
     10942 MEMB     95       OSM      H7S      HAL2     0.900000E-01   1.00800           0
     10943 MEMB     95       OSM      H7T      HAL2     0.900000E-01   1.00800           0
     10944 MEMB     95       OSM      C8S      CTL2    -0.180000       12.0110           0
     10945 MEMB     95       OSM      H8S      HAL2     0.900000E-01   1.00800           0
     10946 MEMB     95       OSM      H8T      HAL2     0.900000E-01   1.00800           0
     10947 MEMB     95       OSM      C9S      CTL2    -0.180000       12.0110           0
     10948 MEMB     95       OSM      H9S      HAL2     0.900000E-01   1.00800           0
     10949 MEMB     95       OSM      H9T      HAL2     0.900000E-01   1.00800           0
     10950 MEMB     95       OSM      C10S     CTL2    -0.180000       12.0110           0
     10951 MEMB     95       OSM      H10S     HAL2     0.900000E-01   1.00800           0
     10952 MEMB     95       OSM      H10T     HAL2     0.900000E-01   1.00800           0
     10953 MEMB     95       OSM      C11S     CTL2    -0.180000       12.0110           0
     10954 MEMB     95       OSM      H11S     HAL2     0.900000E-01   1.00800           0
     10955 MEMB     95       OSM      H11T     HAL2     0.900000E-01   1.00800           0
     10956 MEMB     95       OSM      C12S     CTL2    -0.180000       12.0110           0
     10957 MEMB     95       OSM      H12S     HAL2     0.900000E-01   1.00800           0
     10958 MEMB     95       OSM      H12T     HAL2     0.900000E-01   1.00800           0
     10959 MEMB     95       OSM      C13S     CTL2    -0.180000       12.0110           0
     10960 MEMB     95       OSM      H13S     HAL2     0.900000E-01   1.00800           0
     10961 MEMB     95       OSM      H13T     HAL2     0.900000E-01   1.00800           0
     10962 MEMB     95       OSM      C14S     CTL2    -0.180000       12.0110           0
     10963 MEMB     95       OSM      H14S     HAL2     0.900000E-01   1.00800           0
     10964 MEMB     95       OSM      H14T     HAL2     0.900000E-01   1.00800           0
     10965 MEMB     95       OSM      C15S     CTL2    -0.180000       12.0110           0
     10966 MEMB     95       OSM      H15S     HAL2     0.900000E-01   1.00800           0
     10967 MEMB     95       OSM      H15T     HAL2     0.900000E-01   1.00800           0
     10968 MEMB     95       OSM      C16S     CTL2    -0.180000       12.0110           0
     10969 MEMB     95       OSM      H16S     HAL2     0.900000E-01   1.00800           0
     10970 MEMB     95       OSM      H16T     HAL2     0.900000E-01   1.00800           0
     10971 MEMB     95       OSM      C17S     CTL2    -0.180000       12.0110           0
     10972 MEMB     95       OSM      H17S     HAL2     0.900000E-01   1.00800           0
     10973 MEMB     95       OSM      H17T     HAL2     0.900000E-01   1.00800           0
     10974 MEMB     95       OSM      C18S     CTL3    -0.270000       12.0110           0
     10975 MEMB     95       OSM      H18S     HAL3     0.900000E-01   1.00800           0
     10976 MEMB     95       OSM      H18T     HAL3     0.900000E-01   1.00800           0
     10977 MEMB     95       OSM      H18U     HAL3     0.900000E-01   1.00800           0
     10978 MEMB     95       OSM      C1F      C        0.550000       12.0110           0
     10979 MEMB     95       OSM      OF       O       -0.600000       15.9994           0
     10980 MEMB     95       OSM      C2F      CTL2    -0.700000E-01   12.0110           0
     10981 MEMB     95       OSM      H2F      HAL2     0.600000E-01   1.00800           0
     10982 MEMB     95       OSM      H2G      HAL2     0.600000E-01   1.00800           0
     10983 MEMB     95       OSM      C3F      CTL2    -0.180000       12.0110           0
     10984 MEMB     95       OSM      H3F      HAL2     0.900000E-01   1.00800           0
     10985 MEMB     95       OSM      H3G      HAL2     0.900000E-01   1.00800           0
     10986 MEMB     95       OSM      C4F      CTL2    -0.180000       12.0110           0
     10987 MEMB     95       OSM      H4F      HAL2     0.900000E-01   1.00800           0
     10988 MEMB     95       OSM      H4G      HAL2     0.900000E-01   1.00800           0
     10989 MEMB     95       OSM      C5F      CTL2    -0.180000       12.0110           0
     10990 MEMB     95       OSM      H5F      HAL2     0.900000E-01   1.00800           0
     10991 MEMB     95       OSM      H5G      HAL2     0.900000E-01   1.00800           0
     10992 MEMB     95       OSM      C6F      CTL2    -0.180000       12.0110           0
     10993 MEMB     95       OSM      H6F      HAL2     0.900000E-01   1.00800           0
     10994 MEMB     95       OSM      H6G      HAL2     0.900000E-01   1.00800           0
     10995 MEMB     95       OSM      C7F      CTL2    -0.180000       12.0110           0
     10996 MEMB     95       OSM      H7F      HAL2     0.900000E-01   1.00800           0
     10997 MEMB     95       OSM      H7G      HAL2     0.900000E-01   1.00800           0
     10998 MEMB     95       OSM      C8F      CTL2    -0.180000       12.0110           0
     10999 MEMB     95       OSM      H8F      HAL2     0.900000E-01   1.00800           0
     11000 MEMB     95       OSM      H8G      HAL2     0.900000E-01   1.00800           0
     11001 MEMB     95       OSM      C9F      CEL1    -0.150000       12.0110           0
     11002 MEMB     95       OSM      H9F      HEL1     0.150000       1.00800           0
     11003 MEMB     95       OSM      C10F     CEL1    -0.150000       12.0110           0
     11004 MEMB     95       OSM      H10F     HEL1     0.150000       1.00800           0
     11005 MEMB     95       OSM      C11F     CTL2    -0.180000       12.0110           0
     11006 MEMB     95       OSM      H11F     HAL2     0.900000E-01   1.00800           0
     11007 MEMB     95       OSM      H11G     HAL2     0.900000E-01   1.00800           0
     11008 MEMB     95       OSM      C12F     CTL2    -0.180000       12.0110           0
     11009 MEMB     95       OSM      H12F     HAL2     0.900000E-01   1.00800           0
     11010 MEMB     95       OSM      H12G     HAL2     0.900000E-01   1.00800           0
     11011 MEMB     95       OSM      C13F     CTL2    -0.180000       12.0110           0
     11012 MEMB     95       OSM      H13F     HAL2     0.900000E-01   1.00800           0
     11013 MEMB     95       OSM      H13G     HAL2     0.900000E-01   1.00800           0
     11014 MEMB     95       OSM      C14F     CTL2    -0.180000       12.0110           0
     11015 MEMB     95       OSM      H14F     HAL2     0.900000E-01   1.00800           0
     11016 MEMB     95       OSM      H14G     HAL2     0.900000E-01   1.00800           0
     11017 MEMB     95       OSM      C15F     CTL2    -0.180000       12.0110           0
     11018 MEMB     95       OSM      H15F     HAL2     0.900000E-01   1.00800           0
     11019 MEMB     95       OSM      H15G     HAL2     0.900000E-01   1.00800           0
     11020 MEMB     95       OSM      C16F     CTL2    -0.180000       12.0110           0
     11021 MEMB     95       OSM      H16F     HAL2     0.900000E-01   1.00800           0
     11022 MEMB     95       OSM      H16G     HAL2     0.900000E-01   1.00800           0
     11023 MEMB     95       OSM      C17F     CTL2    -0.180000       12.0110           0
     11024 MEMB     95       OSM      H17F     HAL2     0.900000E-01   1.00800           0
     11025 MEMB     95       OSM      H17G     HAL2     0.900000E-01   1.00800           0
     11026 MEMB     95       OSM      C18F     CTL3    -0.270000       12.0110           0
     11027 MEMB     95       OSM      H18F     HAL3     0.900000E-01   1.00800           0
     11028 MEMB     95       OSM      H18G     HAL3     0.900000E-01   1.00800           0
     11029 MEMB     95       OSM      H18H     HAL3     0.900000E-01   1.00800           0
     11030 MEMB     96       OSM      N        NTL     -0.600000       14.0070           0
     11031 MEMB     96       OSM      C15      CTL5    -0.350000       12.0110           0
     11032 MEMB     96       OSM      H15A     HL       0.250000       1.00800           0
     11033 MEMB     96       OSM      H15B     HL       0.250000       1.00800           0
     11034 MEMB     96       OSM      H15C     HL       0.250000       1.00800           0
     11035 MEMB     96       OSM      C14      CTL5    -0.350000       12.0110           0
     11036 MEMB     96       OSM      H14A     HL       0.250000       1.00800           0
     11037 MEMB     96       OSM      H14B     HL       0.250000       1.00800           0
     11038 MEMB     96       OSM      H14C     HL       0.250000       1.00800           0
     11039 MEMB     96       OSM      C13      CTL5    -0.350000       12.0110           0
     11040 MEMB     96       OSM      H13A     HL       0.250000       1.00800           0
     11041 MEMB     96       OSM      H13B     HL       0.250000       1.00800           0
     11042 MEMB     96       OSM      H13C     HL       0.250000       1.00800           0
     11043 MEMB     96       OSM      C12      CTL2    -0.100000       12.0110           0
     11044 MEMB     96       OSM      H12A     HL       0.250000       1.00800           0
     11045 MEMB     96       OSM      H12B     HL       0.250000       1.00800           0
     11046 MEMB     96       OSM      C11      CTL2    -0.800000E-01   12.0110           0
     11047 MEMB     96       OSM      H11A     HAL2     0.900000E-01   1.00800           0
     11048 MEMB     96       OSM      H11B     HAL2     0.900000E-01   1.00800           0
     11049 MEMB     96       OSM      P        PL        1.50000       30.9740           0
     11050 MEMB     96       OSM      O13      O2L     -0.780000       15.9994           0
     11051 MEMB     96       OSM      O14      O2L     -0.780000       15.9994           0
     11052 MEMB     96       OSM      O11      OSLP    -0.570000       15.9994           0
     11053 MEMB     96       OSM      O12      OSLP    -0.570000       15.9994           0
     11054 MEMB     96       OSM      C1S      CTL2    -0.800000E-01   12.0110           0
     11055 MEMB     96       OSM      H1S      HAL2     0.900000E-01   1.00800           0
     11056 MEMB     96       OSM      H1T      HAL2     0.900000E-01   1.00800           0
     11057 MEMB     96       OSM      NF       NHL     -0.700000       14.0070           0
     11058 MEMB     96       OSM      HNF      H        0.350000       1.00800           0
     11059 MEMB     96       OSM      C2S      CTL1     0.300000       12.0110           0
     11060 MEMB     96       OSM      H2S      HAL1     0.500000E-01   1.00800           0
     11061 MEMB     96       OSM      C3S      CTO1     0.500000       12.0110           0
     11062 MEMB     96       OSM      H3S      HAL1    -0.110000       1.00800           0
     11063 MEMB     96       OSM      O3       OHL     -0.690000       15.9994           0
     11064 MEMB     96       OSM      HO3      HOL      0.300000       1.00800           0
     11065 MEMB     96       OSM      C4S      CEL3    -0.150000       12.0110           0
     11066 MEMB     96       OSM      H4S      HEL1     0.150000       1.00800           0
     11067 MEMB     96       OSM      C5S      CEL3    -0.150000       12.0110           0
     11068 MEMB     96       OSM      H5S      HEL1     0.150000       1.00800           0
     11069 MEMB     96       OSM      C6S      CTL2    -0.180000       12.0110           0
     11070 MEMB     96       OSM      H6S      HAL2     0.900000E-01   1.00800           0
     11071 MEMB     96       OSM      H6T      HAL2     0.900000E-01   1.00800           0
     11072 MEMB     96       OSM      C7S      CTL2    -0.180000       12.0110           0
     11073 MEMB     96       OSM      H7S      HAL2     0.900000E-01   1.00800           0
     11074 MEMB     96       OSM      H7T      HAL2     0.900000E-01   1.00800           0
     11075 MEMB     96       OSM      C8S      CTL2    -0.180000       12.0110           0
     11076 MEMB     96       OSM      H8S      HAL2     0.900000E-01   1.00800           0
     11077 MEMB     96       OSM      H8T      HAL2     0.900000E-01   1.00800           0
     11078 MEMB     96       OSM      C9S      CTL2    -0.180000       12.0110           0
     11079 MEMB     96       OSM      H9S      HAL2     0.900000E-01   1.00800           0
     11080 MEMB     96       OSM      H9T      HAL2     0.900000E-01   1.00800           0
     11081 MEMB     96       OSM      C10S     CTL2    -0.180000       12.0110           0
     11082 MEMB     96       OSM      H10S     HAL2     0.900000E-01   1.00800           0
     11083 MEMB     96       OSM      H10T     HAL2     0.900000E-01   1.00800           0
     11084 MEMB     96       OSM      C11S     CTL2    -0.180000       12.0110           0
     11085 MEMB     96       OSM      H11S     HAL2     0.900000E-01   1.00800           0
     11086 MEMB     96       OSM      H11T     HAL2     0.900000E-01   1.00800           0
     11087 MEMB     96       OSM      C12S     CTL2    -0.180000       12.0110           0
     11088 MEMB     96       OSM      H12S     HAL2     0.900000E-01   1.00800           0
     11089 MEMB     96       OSM      H12T     HAL2     0.900000E-01   1.00800           0
     11090 MEMB     96       OSM      C13S     CTL2    -0.180000       12.0110           0
     11091 MEMB     96       OSM      H13S     HAL2     0.900000E-01   1.00800           0
     11092 MEMB     96       OSM      H13T     HAL2     0.900000E-01   1.00800           0
     11093 MEMB     96       OSM      C14S     CTL2    -0.180000       12.0110           0
     11094 MEMB     96       OSM      H14S     HAL2     0.900000E-01   1.00800           0
     11095 MEMB     96       OSM      H14T     HAL2     0.900000E-01   1.00800           0
     11096 MEMB     96       OSM      C15S     CTL2    -0.180000       12.0110           0
     11097 MEMB     96       OSM      H15S     HAL2     0.900000E-01   1.00800           0
     11098 MEMB     96       OSM      H15T     HAL2     0.900000E-01   1.00800           0
     11099 MEMB     96       OSM      C16S     CTL2    -0.180000       12.0110           0
     11100 MEMB     96       OSM      H16S     HAL2     0.900000E-01   1.00800           0
     11101 MEMB     96       OSM      H16T     HAL2     0.900000E-01   1.00800           0
     11102 MEMB     96       OSM      C17S     CTL2    -0.180000       12.0110           0
     11103 MEMB     96       OSM      H17S     HAL2     0.900000E-01   1.00800           0
     11104 MEMB     96       OSM      H17T     HAL2     0.900000E-01   1.00800           0
     11105 MEMB     96       OSM      C18S     CTL3    -0.270000       12.0110           0
     11106 MEMB     96       OSM      H18S     HAL3     0.900000E-01   1.00800           0
     11107 MEMB     96       OSM      H18T     HAL3     0.900000E-01   1.00800           0
     11108 MEMB     96       OSM      H18U     HAL3     0.900000E-01   1.00800           0
     11109 MEMB     96       OSM      C1F      C        0.550000       12.0110           0
     11110 MEMB     96       OSM      OF       O       -0.600000       15.9994           0
     11111 MEMB     96       OSM      C2F      CTL2    -0.700000E-01   12.0110           0
     11112 MEMB     96       OSM      H2F      HAL2     0.600000E-01   1.00800           0
     11113 MEMB     96       OSM      H2G      HAL2     0.600000E-01   1.00800           0
     11114 MEMB     96       OSM      C3F      CTL2    -0.180000       12.0110           0
     11115 MEMB     96       OSM      H3F      HAL2     0.900000E-01   1.00800           0
     11116 MEMB     96       OSM      H3G      HAL2     0.900000E-01   1.00800           0
     11117 MEMB     96       OSM      C4F      CTL2    -0.180000       12.0110           0
     11118 MEMB     96       OSM      H4F      HAL2     0.900000E-01   1.00800           0
     11119 MEMB     96       OSM      H4G      HAL2     0.900000E-01   1.00800           0
     11120 MEMB     96       OSM      C5F      CTL2    -0.180000       12.0110           0
     11121 MEMB     96       OSM      H5F      HAL2     0.900000E-01   1.00800           0
     11122 MEMB     96       OSM      H5G      HAL2     0.900000E-01   1.00800           0
     11123 MEMB     96       OSM      C6F      CTL2    -0.180000       12.0110           0
     11124 MEMB     96       OSM      H6F      HAL2     0.900000E-01   1.00800           0
     11125 MEMB     96       OSM      H6G      HAL2     0.900000E-01   1.00800           0
     11126 MEMB     96       OSM      C7F      CTL2    -0.180000       12.0110           0
     11127 MEMB     96       OSM      H7F      HAL2     0.900000E-01   1.00800           0
     11128 MEMB     96       OSM      H7G      HAL2     0.900000E-01   1.00800           0
     11129 MEMB     96       OSM      C8F      CTL2    -0.180000       12.0110           0
     11130 MEMB     96       OSM      H8F      HAL2     0.900000E-01   1.00800           0
     11131 MEMB     96       OSM      H8G      HAL2     0.900000E-01   1.00800           0
     11132 MEMB     96       OSM      C9F      CEL1    -0.150000       12.0110           0
     11133 MEMB     96       OSM      H9F      HEL1     0.150000       1.00800           0
     11134 MEMB     96       OSM      C10F     CEL1    -0.150000       12.0110           0
     11135 MEMB     96       OSM      H10F     HEL1     0.150000       1.00800           0
     11136 MEMB     96       OSM      C11F     CTL2    -0.180000       12.0110           0
     11137 MEMB     96       OSM      H11F     HAL2     0.900000E-01   1.00800           0
     11138 MEMB     96       OSM      H11G     HAL2     0.900000E-01   1.00800           0
     11139 MEMB     96       OSM      C12F     CTL2    -0.180000       12.0110           0
     11140 MEMB     96       OSM      H12F     HAL2     0.900000E-01   1.00800           0
     11141 MEMB     96       OSM      H12G     HAL2     0.900000E-01   1.00800           0
     11142 MEMB     96       OSM      C13F     CTL2    -0.180000       12.0110           0
     11143 MEMB     96       OSM      H13F     HAL2     0.900000E-01   1.00800           0
     11144 MEMB     96       OSM      H13G     HAL2     0.900000E-01   1.00800           0
     11145 MEMB     96       OSM      C14F     CTL2    -0.180000       12.0110           0
     11146 MEMB     96       OSM      H14F     HAL2     0.900000E-01   1.00800           0
     11147 MEMB     96       OSM      H14G     HAL2     0.900000E-01   1.00800           0
     11148 MEMB     96       OSM      C15F     CTL2    -0.180000       12.0110           0
     11149 MEMB     96       OSM      H15F     HAL2     0.900000E-01   1.00800           0
     11150 MEMB     96       OSM      H15G     HAL2     0.900000E-01   1.00800           0
     11151 MEMB     96       OSM      C16F     CTL2    -0.180000       12.0110           0
     11152 MEMB     96       OSM      H16F     HAL2     0.900000E-01   1.00800           0
     11153 MEMB     96       OSM      H16G     HAL2     0.900000E-01   1.00800           0
     11154 MEMB     96       OSM      C17F     CTL2    -0.180000       12.0110           0
     11155 MEMB     96       OSM      H17F     HAL2     0.900000E-01   1.00800           0
     11156 MEMB     96       OSM      H17G     HAL2     0.900000E-01   1.00800           0
     11157 MEMB     96       OSM      C18F     CTL3    -0.270000       12.0110           0
     11158 MEMB     96       OSM      H18F     HAL3     0.900000E-01   1.00800           0
     11159 MEMB     96       OSM      H18G     HAL3     0.900000E-01   1.00800           0
     11160 MEMB     96       OSM      H18H     HAL3     0.900000E-01   1.00800           0
     11161 MEMB     97       OSM      N        NTL     -0.600000       14.0070           0
     11162 MEMB     97       OSM      C15      CTL5    -0.350000       12.0110           0
     11163 MEMB     97       OSM      H15A     HL       0.250000       1.00800           0
     11164 MEMB     97       OSM      H15B     HL       0.250000       1.00800           0
     11165 MEMB     97       OSM      H15C     HL       0.250000       1.00800           0
     11166 MEMB     97       OSM      C14      CTL5    -0.350000       12.0110           0
     11167 MEMB     97       OSM      H14A     HL       0.250000       1.00800           0
     11168 MEMB     97       OSM      H14B     HL       0.250000       1.00800           0
     11169 MEMB     97       OSM      H14C     HL       0.250000       1.00800           0
     11170 MEMB     97       OSM      C13      CTL5    -0.350000       12.0110           0
     11171 MEMB     97       OSM      H13A     HL       0.250000       1.00800           0
     11172 MEMB     97       OSM      H13B     HL       0.250000       1.00800           0
     11173 MEMB     97       OSM      H13C     HL       0.250000       1.00800           0
     11174 MEMB     97       OSM      C12      CTL2    -0.100000       12.0110           0
     11175 MEMB     97       OSM      H12A     HL       0.250000       1.00800           0
     11176 MEMB     97       OSM      H12B     HL       0.250000       1.00800           0
     11177 MEMB     97       OSM      C11      CTL2    -0.800000E-01   12.0110           0
     11178 MEMB     97       OSM      H11A     HAL2     0.900000E-01   1.00800           0
     11179 MEMB     97       OSM      H11B     HAL2     0.900000E-01   1.00800           0
     11180 MEMB     97       OSM      P        PL        1.50000       30.9740           0
     11181 MEMB     97       OSM      O13      O2L     -0.780000       15.9994           0
     11182 MEMB     97       OSM      O14      O2L     -0.780000       15.9994           0
     11183 MEMB     97       OSM      O11      OSLP    -0.570000       15.9994           0
     11184 MEMB     97       OSM      O12      OSLP    -0.570000       15.9994           0
     11185 MEMB     97       OSM      C1S      CTL2    -0.800000E-01   12.0110           0
     11186 MEMB     97       OSM      H1S      HAL2     0.900000E-01   1.00800           0
     11187 MEMB     97       OSM      H1T      HAL2     0.900000E-01   1.00800           0
     11188 MEMB     97       OSM      NF       NHL     -0.700000       14.0070           0
     11189 MEMB     97       OSM      HNF      H        0.350000       1.00800           0
     11190 MEMB     97       OSM      C2S      CTL1     0.300000       12.0110           0
     11191 MEMB     97       OSM      H2S      HAL1     0.500000E-01   1.00800           0
     11192 MEMB     97       OSM      C3S      CTO1     0.500000       12.0110           0
     11193 MEMB     97       OSM      H3S      HAL1    -0.110000       1.00800           0
     11194 MEMB     97       OSM      O3       OHL     -0.690000       15.9994           0
     11195 MEMB     97       OSM      HO3      HOL      0.300000       1.00800           0
     11196 MEMB     97       OSM      C4S      CEL3    -0.150000       12.0110           0
     11197 MEMB     97       OSM      H4S      HEL1     0.150000       1.00800           0
     11198 MEMB     97       OSM      C5S      CEL3    -0.150000       12.0110           0
     11199 MEMB     97       OSM      H5S      HEL1     0.150000       1.00800           0
     11200 MEMB     97       OSM      C6S      CTL2    -0.180000       12.0110           0
     11201 MEMB     97       OSM      H6S      HAL2     0.900000E-01   1.00800           0
     11202 MEMB     97       OSM      H6T      HAL2     0.900000E-01   1.00800           0
     11203 MEMB     97       OSM      C7S      CTL2    -0.180000       12.0110           0
     11204 MEMB     97       OSM      H7S      HAL2     0.900000E-01   1.00800           0
     11205 MEMB     97       OSM      H7T      HAL2     0.900000E-01   1.00800           0
     11206 MEMB     97       OSM      C8S      CTL2    -0.180000       12.0110           0
     11207 MEMB     97       OSM      H8S      HAL2     0.900000E-01   1.00800           0
     11208 MEMB     97       OSM      H8T      HAL2     0.900000E-01   1.00800           0
     11209 MEMB     97       OSM      C9S      CTL2    -0.180000       12.0110           0
     11210 MEMB     97       OSM      H9S      HAL2     0.900000E-01   1.00800           0
     11211 MEMB     97       OSM      H9T      HAL2     0.900000E-01   1.00800           0
     11212 MEMB     97       OSM      C10S     CTL2    -0.180000       12.0110           0
     11213 MEMB     97       OSM      H10S     HAL2     0.900000E-01   1.00800           0
     11214 MEMB     97       OSM      H10T     HAL2     0.900000E-01   1.00800           0
     11215 MEMB     97       OSM      C11S     CTL2    -0.180000       12.0110           0
     11216 MEMB     97       OSM      H11S     HAL2     0.900000E-01   1.00800           0
     11217 MEMB     97       OSM      H11T     HAL2     0.900000E-01   1.00800           0
     11218 MEMB     97       OSM      C12S     CTL2    -0.180000       12.0110           0
     11219 MEMB     97       OSM      H12S     HAL2     0.900000E-01   1.00800           0
     11220 MEMB     97       OSM      H12T     HAL2     0.900000E-01   1.00800           0
     11221 MEMB     97       OSM      C13S     CTL2    -0.180000       12.0110           0
     11222 MEMB     97       OSM      H13S     HAL2     0.900000E-01   1.00800           0
     11223 MEMB     97       OSM      H13T     HAL2     0.900000E-01   1.00800           0
     11224 MEMB     97       OSM      C14S     CTL2    -0.180000       12.0110           0
     11225 MEMB     97       OSM      H14S     HAL2     0.900000E-01   1.00800           0
     11226 MEMB     97       OSM      H14T     HAL2     0.900000E-01   1.00800           0
     11227 MEMB     97       OSM      C15S     CTL2    -0.180000       12.0110           0
     11228 MEMB     97       OSM      H15S     HAL2     0.900000E-01   1.00800           0
     11229 MEMB     97       OSM      H15T     HAL2     0.900000E-01   1.00800           0
     11230 MEMB     97       OSM      C16S     CTL2    -0.180000       12.0110           0
     11231 MEMB     97       OSM      H16S     HAL2     0.900000E-01   1.00800           0
     11232 MEMB     97       OSM      H16T     HAL2     0.900000E-01   1.00800           0
     11233 MEMB     97       OSM      C17S     CTL2    -0.180000       12.0110           0
     11234 MEMB     97       OSM      H17S     HAL2     0.900000E-01   1.00800           0
     11235 MEMB     97       OSM      H17T     HAL2     0.900000E-01   1.00800           0
     11236 MEMB     97       OSM      C18S     CTL3    -0.270000       12.0110           0
     11237 MEMB     97       OSM      H18S     HAL3     0.900000E-01   1.00800           0
     11238 MEMB     97       OSM      H18T     HAL3     0.900000E-01   1.00800           0
     11239 MEMB     97       OSM      H18U     HAL3     0.900000E-01   1.00800           0
     11240 MEMB     97       OSM      C1F      C        0.550000       12.0110           0
     11241 MEMB     97       OSM      OF       O       -0.600000       15.9994           0
     11242 MEMB     97       OSM      C2F      CTL2    -0.700000E-01   12.0110           0
     11243 MEMB     97       OSM      H2F      HAL2     0.600000E-01   1.00800           0
     11244 MEMB     97       OSM      H2G      HAL2     0.600000E-01   1.00800           0
     11245 MEMB     97       OSM      C3F      CTL2    -0.180000       12.0110           0
     11246 MEMB     97       OSM      H3F      HAL2     0.900000E-01   1.00800           0
     11247 MEMB     97       OSM      H3G      HAL2     0.900000E-01   1.00800           0
     11248 MEMB     97       OSM      C4F      CTL2    -0.180000       12.0110           0
     11249 MEMB     97       OSM      H4F      HAL2     0.900000E-01   1.00800           0
     11250 MEMB     97       OSM      H4G      HAL2     0.900000E-01   1.00800           0
     11251 MEMB     97       OSM      C5F      CTL2    -0.180000       12.0110           0
     11252 MEMB     97       OSM      H5F      HAL2     0.900000E-01   1.00800           0
     11253 MEMB     97       OSM      H5G      HAL2     0.900000E-01   1.00800           0
     11254 MEMB     97       OSM      C6F      CTL2    -0.180000       12.0110           0
     11255 MEMB     97       OSM      H6F      HAL2     0.900000E-01   1.00800           0
     11256 MEMB     97       OSM      H6G      HAL2     0.900000E-01   1.00800           0
     11257 MEMB     97       OSM      C7F      CTL2    -0.180000       12.0110           0
     11258 MEMB     97       OSM      H7F      HAL2     0.900000E-01   1.00800           0
     11259 MEMB     97       OSM      H7G      HAL2     0.900000E-01   1.00800           0
     11260 MEMB     97       OSM      C8F      CTL2    -0.180000       12.0110           0
     11261 MEMB     97       OSM      H8F      HAL2     0.900000E-01   1.00800           0
     11262 MEMB     97       OSM      H8G      HAL2     0.900000E-01   1.00800           0
     11263 MEMB     97       OSM      C9F      CEL1    -0.150000       12.0110           0
     11264 MEMB     97       OSM      H9F      HEL1     0.150000       1.00800           0
     11265 MEMB     97       OSM      C10F     CEL1    -0.150000       12.0110           0
     11266 MEMB     97       OSM      H10F     HEL1     0.150000       1.00800           0
     11267 MEMB     97       OSM      C11F     CTL2    -0.180000       12.0110           0
     11268 MEMB     97       OSM      H11F     HAL2     0.900000E-01   1.00800           0
     11269 MEMB     97       OSM      H11G     HAL2     0.900000E-01   1.00800           0
     11270 MEMB     97       OSM      C12F     CTL2    -0.180000       12.0110           0
     11271 MEMB     97       OSM      H12F     HAL2     0.900000E-01   1.00800           0
     11272 MEMB     97       OSM      H12G     HAL2     0.900000E-01   1.00800           0
     11273 MEMB     97       OSM      C13F     CTL2    -0.180000       12.0110           0
     11274 MEMB     97       OSM      H13F     HAL2     0.900000E-01   1.00800           0
     11275 MEMB     97       OSM      H13G     HAL2     0.900000E-01   1.00800           0
     11276 MEMB     97       OSM      C14F     CTL2    -0.180000       12.0110           0
     11277 MEMB     97       OSM      H14F     HAL2     0.900000E-01   1.00800           0
     11278 MEMB     97       OSM      H14G     HAL2     0.900000E-01   1.00800           0
     11279 MEMB     97       OSM      C15F     CTL2    -0.180000       12.0110           0
     11280 MEMB     97       OSM      H15F     HAL2     0.900000E-01   1.00800           0
     11281 MEMB     97       OSM      H15G     HAL2     0.900000E-01   1.00800           0
     11282 MEMB     97       OSM      C16F     CTL2    -0.180000       12.0110           0
     11283 MEMB     97       OSM      H16F     HAL2     0.900000E-01   1.00800           0
     11284 MEMB     97       OSM      H16G     HAL2     0.900000E-01   1.00800           0
     11285 MEMB     97       OSM      C17F     CTL2    -0.180000       12.0110           0
     11286 MEMB     97       OSM      H17F     HAL2     0.900000E-01   1.00800           0
     11287 MEMB     97       OSM      H17G     HAL2     0.900000E-01   1.00800           0
     11288 MEMB     97       OSM      C18F     CTL3    -0.270000       12.0110           0
     11289 MEMB     97       OSM      H18F     HAL3     0.900000E-01   1.00800           0
     11290 MEMB     97       OSM      H18G     HAL3     0.900000E-01   1.00800           0
     11291 MEMB     97       OSM      H18H     HAL3     0.900000E-01   1.00800           0
     11292 MEMB     98       CHL1     C3       CRL1     0.140000       12.0110           0
     11293 MEMB     98       CHL1     H3       HGA1     0.900000E-01   1.00800           0
     11294 MEMB     98       CHL1     O3       OHL     -0.660000       15.9994           0
     11295 MEMB     98       CHL1     H3'      HOL      0.430000       1.00800           0
     11296 MEMB     98       CHL1     C4       CRL2    -0.180000       12.0110           0
     11297 MEMB     98       CHL1     H4A      HGA2     0.900000E-01   1.00800           0
     11298 MEMB     98       CHL1     H4B      HGA2     0.900000E-01   1.00800           0
     11299 MEMB     98       CHL1     C5       CEL1      0.00000       12.0110           0
     11300 MEMB     98       CHL1     C6       CEL1    -0.150000       12.0110           0
     11301 MEMB     98       CHL1     H6       HEL1     0.150000       1.00800           0
     11302 MEMB     98       CHL1     C7       CRL2    -0.180000       12.0110           0
     11303 MEMB     98       CHL1     H7A      HGA2     0.900000E-01   1.00800           0
     11304 MEMB     98       CHL1     H7B      HGA2     0.900000E-01   1.00800           0
     11305 MEMB     98       CHL1     C8       CRL1    -0.900000E-01   12.0110           0
     11306 MEMB     98       CHL1     H8       HGA1     0.900000E-01   1.00800           0
     11307 MEMB     98       CHL1     C14      CRL1    -0.900000E-01   12.0110           0
     11308 MEMB     98       CHL1     H14      HGA1     0.900000E-01   1.00800           0
     11309 MEMB     98       CHL1     C15      CRL2    -0.180000       12.0110           0
     11310 MEMB     98       CHL1     H15A     HGA2     0.900000E-01   1.00800           0
     11311 MEMB     98       CHL1     H15B     HGA2     0.900000E-01   1.00800           0
     11312 MEMB     98       CHL1     C16      CRL2    -0.180000       12.0110           0
     11313 MEMB     98       CHL1     H16A     HGA2     0.900000E-01   1.00800           0
     11314 MEMB     98       CHL1     H16B     HGA2     0.900000E-01   1.00800           0
     11315 MEMB     98       CHL1     C17      CRL1    -0.900000E-01   12.0110           0
     11316 MEMB     98       CHL1     H17      HGA1     0.900000E-01   1.00800           0
     11317 MEMB     98       CHL1     C13      CRL1      0.00000       12.0110           0
     11318 MEMB     98       CHL1     C18      CTL3    -0.270000       12.0110           0
     11319 MEMB     98       CHL1     H18A     HAL3     0.900000E-01   1.00800           0
     11320 MEMB     98       CHL1     H18B     HAL3     0.900000E-01   1.00800           0
     11321 MEMB     98       CHL1     H18C     HAL3     0.900000E-01   1.00800           0
     11322 MEMB     98       CHL1     C12      CRL2    -0.180000       12.0110           0
     11323 MEMB     98       CHL1     H12A     HGA2     0.900000E-01   1.00800           0
     11324 MEMB     98       CHL1     H12B     HGA2     0.900000E-01   1.00800           0
     11325 MEMB     98       CHL1     C11      CRL2    -0.180000       12.0110           0
     11326 MEMB     98       CHL1     H11A     HGA2     0.900000E-01   1.00800           0
     11327 MEMB     98       CHL1     H11B     HGA2     0.900000E-01   1.00800           0
     11328 MEMB     98       CHL1     C9       CRL1    -0.900000E-01   12.0110           0
     11329 MEMB     98       CHL1     H9       HGA1     0.900000E-01   1.00800           0
     11330 MEMB     98       CHL1     C10      CRL1      0.00000       12.0110           0
     11331 MEMB     98       CHL1     C19      CTL3    -0.270000       12.0110           0
     11332 MEMB     98       CHL1     H19A     HAL3     0.900000E-01   1.00800           0
     11333 MEMB     98       CHL1     H19B     HAL3     0.900000E-01   1.00800           0
     11334 MEMB     98       CHL1     H19C     HAL3     0.900000E-01   1.00800           0
     11335 MEMB     98       CHL1     C1       CRL2    -0.180000       12.0110           0
     11336 MEMB     98       CHL1     H1A      HGA2     0.900000E-01   1.00800           0
     11337 MEMB     98       CHL1     H1B      HGA2     0.900000E-01   1.00800           0
     11338 MEMB     98       CHL1     C2       CRL2    -0.180000       12.0110           0
     11339 MEMB     98       CHL1     H2A      HGA2     0.900000E-01   1.00800           0
     11340 MEMB     98       CHL1     H2B      HGA2     0.900000E-01   1.00800           0
     11341 MEMB     98       CHL1     C20      CTL1    -0.900000E-01   12.0110           0
     11342 MEMB     98       CHL1     H20      HAL1     0.900000E-01   1.00800           0
     11343 MEMB     98       CHL1     C21      CTL3    -0.270000       12.0110           0
     11344 MEMB     98       CHL1     H21A     HAL3     0.900000E-01   1.00800           0
     11345 MEMB     98       CHL1     H21B     HAL3     0.900000E-01   1.00800           0
     11346 MEMB     98       CHL1     H21C     HAL3     0.900000E-01   1.00800           0
     11347 MEMB     98       CHL1     C22      CTL2    -0.180000       12.0110           0
     11348 MEMB     98       CHL1     H22A     HAL2     0.900000E-01   1.00800           0
     11349 MEMB     98       CHL1     H22B     HAL2     0.900000E-01   1.00800           0
     11350 MEMB     98       CHL1     C23      CTL2    -0.180000       12.0110           0
     11351 MEMB     98       CHL1     H23A     HAL2     0.900000E-01   1.00800           0
     11352 MEMB     98       CHL1     H23B     HAL2     0.900000E-01   1.00800           0
     11353 MEMB     98       CHL1     C24      CTL2    -0.180000       12.0110           0
     11354 MEMB     98       CHL1     H24A     HAL2     0.900000E-01   1.00800           0
     11355 MEMB     98       CHL1     H24B     HAL2     0.900000E-01   1.00800           0
     11356 MEMB     98       CHL1     C25      CTL1    -0.900000E-01   12.0110           0
     11357 MEMB     98       CHL1     H25      HAL1     0.900000E-01   1.00800           0
     11358 MEMB     98       CHL1     C26      CTL3    -0.270000       12.0110           0
     11359 MEMB     98       CHL1     H26A     HAL3     0.900000E-01   1.00800           0
     11360 MEMB     98       CHL1     H26B     HAL3     0.900000E-01   1.00800           0
     11361 MEMB     98       CHL1     H26C     HAL3     0.900000E-01   1.00800           0
     11362 MEMB     98       CHL1     C27      CTL3    -0.270000       12.0110           0
     11363 MEMB     98       CHL1     H27A     HAL3     0.900000E-01   1.00800           0
     11364 MEMB     98       CHL1     H27B     HAL3     0.900000E-01   1.00800           0
     11365 MEMB     98       CHL1     H27C     HAL3     0.900000E-01   1.00800           0
     11366 MEMB     99       SLPC     N        NTL     -0.600000       14.0070           0
     11367 MEMB     99       SLPC     C13      CTL5    -0.350000       12.0110           0
     11368 MEMB     99       SLPC     H13A     HL       0.250000       1.00800           0
     11369 MEMB     99       SLPC     H13B     HL       0.250000       1.00800           0
     11370 MEMB     99       SLPC     H13C     HL       0.250000       1.00800           0
     11371 MEMB     99       SLPC     C14      CTL5    -0.350000       12.0110           0
     11372 MEMB     99       SLPC     H14A     HL       0.250000       1.00800           0
     11373 MEMB     99       SLPC     H14B     HL       0.250000       1.00800           0
     11374 MEMB     99       SLPC     H14C     HL       0.250000       1.00800           0
     11375 MEMB     99       SLPC     C15      CTL5    -0.350000       12.0110           0
     11376 MEMB     99       SLPC     H15A     HL       0.250000       1.00800           0
     11377 MEMB     99       SLPC     H15B     HL       0.250000       1.00800           0
     11378 MEMB     99       SLPC     H15C     HL       0.250000       1.00800           0
     11379 MEMB     99       SLPC     C12      CTL2    -0.100000       12.0110           0
     11380 MEMB     99       SLPC     H12A     HL       0.250000       1.00800           0
     11381 MEMB     99       SLPC     H12B     HL       0.250000       1.00800           0
     11382 MEMB     99       SLPC     C11      CTL2    -0.800000E-01   12.0110           0
     11383 MEMB     99       SLPC     H11A     HAL2     0.900000E-01   1.00800           0
     11384 MEMB     99       SLPC     H11B     HAL2     0.900000E-01   1.00800           0
     11385 MEMB     99       SLPC     P        PL        1.50000       30.9740           0
     11386 MEMB     99       SLPC     O13      O2L     -0.780000       15.9994           0
     11387 MEMB     99       SLPC     O14      O2L     -0.780000       15.9994           0
     11388 MEMB     99       SLPC     O12      OSLP    -0.570000       15.9994           0
     11389 MEMB     99       SLPC     O11      OSLP    -0.570000       15.9994           0
     11390 MEMB     99       SLPC     C1       CTL2    -0.800000E-01   12.0110           0
     11391 MEMB     99       SLPC     HA       HAL2     0.900000E-01   1.00800           0
     11392 MEMB     99       SLPC     HB       HAL2     0.900000E-01   1.00800           0
     11393 MEMB     99       SLPC     C2       CTL1     0.170000       12.0110           0
     11394 MEMB     99       SLPC     HS       HAL1     0.900000E-01   1.00800           0
     11395 MEMB     99       SLPC     O21      OSL     -0.490000       15.9994           0
     11396 MEMB     99       SLPC     C21      CL       0.900000       12.0110           0
     11397 MEMB     99       SLPC     O22      OBL     -0.630000       15.9994           0
     11398 MEMB     99       SLPC     C22      CTL2    -0.220000       12.0110           0
     11399 MEMB     99       SLPC     H2R      HAL2     0.900000E-01   1.00800           0
     11400 MEMB     99       SLPC     H2S      HAL2     0.900000E-01   1.00800           0
     11401 MEMB     99       SLPC     C3       CTL2     0.800000E-01   12.0110           0
     11402 MEMB     99       SLPC     HX       HAL2     0.900000E-01   1.00800           0
     11403 MEMB     99       SLPC     HY       HAL2     0.900000E-01   1.00800           0
     11404 MEMB     99       SLPC     O31      OSL     -0.490000       15.9994           0
     11405 MEMB     99       SLPC     C31      CL       0.900000       12.0110           0
     11406 MEMB     99       SLPC     O32      OBL     -0.630000       15.9994           0
     11407 MEMB     99       SLPC     C32      CTL2    -0.220000       12.0110           0
     11408 MEMB     99       SLPC     H2X      HAL2     0.900000E-01   1.00800           0
     11409 MEMB     99       SLPC     H2Y      HAL2     0.900000E-01   1.00800           0
     11410 MEMB     99       SLPC     C23      CTL2    -0.180000       12.0110           0
     11411 MEMB     99       SLPC     H3R      HAL2     0.900000E-01   1.00800           0
     11412 MEMB     99       SLPC     H3S      HAL2     0.900000E-01   1.00800           0
     11413 MEMB     99       SLPC     C24      CTL2    -0.180000       12.0110           0
     11414 MEMB     99       SLPC     H4R      HAL2     0.900000E-01   1.00800           0
     11415 MEMB     99       SLPC     H4S      HAL2     0.900000E-01   1.00800           0
     11416 MEMB     99       SLPC     C25      CTL2    -0.180000       12.0110           0
     11417 MEMB     99       SLPC     H5R      HAL2     0.900000E-01   1.00800           0
     11418 MEMB     99       SLPC     H5S      HAL2     0.900000E-01   1.00800           0
     11419 MEMB     99       SLPC     C26      CTL2    -0.180000       12.0110           0
     11420 MEMB     99       SLPC     H6R      HAL2     0.900000E-01   1.00800           0
     11421 MEMB     99       SLPC     H6S      HAL2     0.900000E-01   1.00800           0
     11422 MEMB     99       SLPC     C27      CTL2    -0.180000       12.0110           0
     11423 MEMB     99       SLPC     H7R      HAL2     0.900000E-01   1.00800           0
     11424 MEMB     99       SLPC     H7S      HAL2     0.900000E-01   1.00800           0
     11425 MEMB     99       SLPC     C28      CTL2    -0.180000       12.0110           0
     11426 MEMB     99       SLPC     H8R      HAL2     0.900000E-01   1.00800           0
     11427 MEMB     99       SLPC     H8S      HAL2     0.900000E-01   1.00800           0
     11428 MEMB     99       SLPC     C29      CEL1    -0.150000       12.0110           0
     11429 MEMB     99       SLPC     H9R      HEL1     0.150000       1.00800           0
     11430 MEMB     99       SLPC     C210     CEL1    -0.150000       12.0110           0
     11431 MEMB     99       SLPC     H10R     HEL1     0.150000       1.00800           0
     11432 MEMB     99       SLPC     C211     CTL2    -0.180000       12.0110           0
     11433 MEMB     99       SLPC     H11R     HAL2     0.900000E-01   1.00800           0
     11434 MEMB     99       SLPC     H11S     HAL2     0.900000E-01   1.00800           0
     11435 MEMB     99       SLPC     C212     CEL1    -0.150000       12.0110           0
     11436 MEMB     99       SLPC     H12R     HEL1     0.150000       1.00800           0
     11437 MEMB     99       SLPC     C213     CEL1    -0.150000       12.0110           0
     11438 MEMB     99       SLPC     H13R     HEL1     0.150000       1.00800           0
     11439 MEMB     99       SLPC     C214     CTL2    -0.180000       12.0110           0
     11440 MEMB     99       SLPC     H14R     HAL2     0.900000E-01   1.00800           0
     11441 MEMB     99       SLPC     H14S     HAL2     0.900000E-01   1.00800           0
     11442 MEMB     99       SLPC     C215     CTL2    -0.180000       12.0110           0
     11443 MEMB     99       SLPC     H15R     HAL2     0.900000E-01   1.00800           0
     11444 MEMB     99       SLPC     H15S     HAL2     0.900000E-01   1.00800           0
     11445 MEMB     99       SLPC     C216     CTL2    -0.180000       12.0110           0
     11446 MEMB     99       SLPC     H16R     HAL2     0.900000E-01   1.00800           0
     11447 MEMB     99       SLPC     H16S     HAL2     0.900000E-01   1.00800           0
     11448 MEMB     99       SLPC     C217     CTL2    -0.180000       12.0110           0
     11449 MEMB     99       SLPC     H17R     HAL2     0.900000E-01   1.00800           0
     11450 MEMB     99       SLPC     H17S     HAL2     0.900000E-01   1.00800           0
     11451 MEMB     99       SLPC     C218     CTL3    -0.270000       12.0110           0
     11452 MEMB     99       SLPC     H18R     HAL3     0.900000E-01   1.00800           0
     11453 MEMB     99       SLPC     H18S     HAL3     0.900000E-01   1.00800           0
     11454 MEMB     99       SLPC     H18T     HAL3     0.900000E-01   1.00800           0
     11455 MEMB     99       SLPC     C33      CTL2    -0.180000       12.0110           0
     11456 MEMB     99       SLPC     H3X      HAL2     0.900000E-01   1.00800           0
     11457 MEMB     99       SLPC     H3Y      HAL2     0.900000E-01   1.00800           0
     11458 MEMB     99       SLPC     C34      CTL2    -0.180000       12.0110           0
     11459 MEMB     99       SLPC     H4X      HAL2     0.900000E-01   1.00800           0
     11460 MEMB     99       SLPC     H4Y      HAL2     0.900000E-01   1.00800           0
     11461 MEMB     99       SLPC     C35      CTL2    -0.180000       12.0110           0
     11462 MEMB     99       SLPC     H5X      HAL2     0.900000E-01   1.00800           0
     11463 MEMB     99       SLPC     H5Y      HAL2     0.900000E-01   1.00800           0
     11464 MEMB     99       SLPC     C36      CTL2    -0.180000       12.0110           0
     11465 MEMB     99       SLPC     H6X      HAL2     0.900000E-01   1.00800           0
     11466 MEMB     99       SLPC     H6Y      HAL2     0.900000E-01   1.00800           0
     11467 MEMB     99       SLPC     C37      CTL2    -0.180000       12.0110           0
     11468 MEMB     99       SLPC     H7X      HAL2     0.900000E-01   1.00800           0
     11469 MEMB     99       SLPC     H7Y      HAL2     0.900000E-01   1.00800           0
     11470 MEMB     99       SLPC     C38      CTL2    -0.180000       12.0110           0
     11471 MEMB     99       SLPC     H8X      HAL2     0.900000E-01   1.00800           0
     11472 MEMB     99       SLPC     H8Y      HAL2     0.900000E-01   1.00800           0
     11473 MEMB     99       SLPC     C39      CTL2    -0.180000       12.0110           0
     11474 MEMB     99       SLPC     H9X      HAL2     0.900000E-01   1.00800           0
     11475 MEMB     99       SLPC     H9Y      HAL2     0.900000E-01   1.00800           0
     11476 MEMB     99       SLPC     C310     CTL2    -0.180000       12.0110           0
     11477 MEMB     99       SLPC     H10X     HAL2     0.900000E-01   1.00800           0
     11478 MEMB     99       SLPC     H10Y     HAL2     0.900000E-01   1.00800           0
     11479 MEMB     99       SLPC     C311     CTL2    -0.180000       12.0110           0
     11480 MEMB     99       SLPC     H11X     HAL2     0.900000E-01   1.00800           0
     11481 MEMB     99       SLPC     H11Y     HAL2     0.900000E-01   1.00800           0
     11482 MEMB     99       SLPC     C312     CTL2    -0.180000       12.0110           0
     11483 MEMB     99       SLPC     H12X     HAL2     0.900000E-01   1.00800           0
     11484 MEMB     99       SLPC     H12Y     HAL2     0.900000E-01   1.00800           0
     11485 MEMB     99       SLPC     C313     CTL2    -0.180000       12.0110           0
     11486 MEMB     99       SLPC     H13X     HAL2     0.900000E-01   1.00800           0
     11487 MEMB     99       SLPC     H13Y     HAL2     0.900000E-01   1.00800           0
     11488 MEMB     99       SLPC     C314     CTL2    -0.180000       12.0110           0
     11489 MEMB     99       SLPC     H14X     HAL2     0.900000E-01   1.00800           0
     11490 MEMB     99       SLPC     H14Y     HAL2     0.900000E-01   1.00800           0
     11491 MEMB     99       SLPC     C315     CTL2    -0.180000       12.0110           0
     11492 MEMB     99       SLPC     H15X     HAL2     0.900000E-01   1.00800           0
     11493 MEMB     99       SLPC     H15Y     HAL2     0.900000E-01   1.00800           0
     11494 MEMB     99       SLPC     C316     CTL2    -0.180000       12.0110           0
     11495 MEMB     99       SLPC     H16X     HAL2     0.900000E-01   1.00800           0
     11496 MEMB     99       SLPC     H16Y     HAL2     0.900000E-01   1.00800           0
     11497 MEMB     99       SLPC     C317     CTL2    -0.180000       12.0110           0
     11498 MEMB     99       SLPC     H17X     HAL2     0.900000E-01   1.00800           0
     11499 MEMB     99       SLPC     H17Y     HAL2     0.900000E-01   1.00800           0
     11500 MEMB     99       SLPC     C318     CTL3    -0.270000       12.0110           0
     11501 MEMB     99       SLPC     H18X     HAL3     0.900000E-01   1.00800           0
     11502 MEMB     99       SLPC     H18Y     HAL3     0.900000E-01   1.00800           0
     11503 MEMB     99       SLPC     H18Z     HAL3     0.900000E-01   1.00800           0
     11504 MEMB     100      SLPC     N        NTL     -0.600000       14.0070           0
     11505 MEMB     100      SLPC     C13      CTL5    -0.350000       12.0110           0
     11506 MEMB     100      SLPC     H13A     HL       0.250000       1.00800           0
     11507 MEMB     100      SLPC     H13B     HL       0.250000       1.00800           0
     11508 MEMB     100      SLPC     H13C     HL       0.250000       1.00800           0
     11509 MEMB     100      SLPC     C14      CTL5    -0.350000       12.0110           0
     11510 MEMB     100      SLPC     H14A     HL       0.250000       1.00800           0
     11511 MEMB     100      SLPC     H14B     HL       0.250000       1.00800           0
     11512 MEMB     100      SLPC     H14C     HL       0.250000       1.00800           0
     11513 MEMB     100      SLPC     C15      CTL5    -0.350000       12.0110           0
     11514 MEMB     100      SLPC     H15A     HL       0.250000       1.00800           0
     11515 MEMB     100      SLPC     H15B     HL       0.250000       1.00800           0
     11516 MEMB     100      SLPC     H15C     HL       0.250000       1.00800           0
     11517 MEMB     100      SLPC     C12      CTL2    -0.100000       12.0110           0
     11518 MEMB     100      SLPC     H12A     HL       0.250000       1.00800           0
     11519 MEMB     100      SLPC     H12B     HL       0.250000       1.00800           0
     11520 MEMB     100      SLPC     C11      CTL2    -0.800000E-01   12.0110           0
     11521 MEMB     100      SLPC     H11A     HAL2     0.900000E-01   1.00800           0
     11522 MEMB     100      SLPC     H11B     HAL2     0.900000E-01   1.00800           0
     11523 MEMB     100      SLPC     P        PL        1.50000       30.9740           0
     11524 MEMB     100      SLPC     O13      O2L     -0.780000       15.9994           0
     11525 MEMB     100      SLPC     O14      O2L     -0.780000       15.9994           0
     11526 MEMB     100      SLPC     O12      OSLP    -0.570000       15.9994           0
     11527 MEMB     100      SLPC     O11      OSLP    -0.570000       15.9994           0
     11528 MEMB     100      SLPC     C1       CTL2    -0.800000E-01   12.0110           0
     11529 MEMB     100      SLPC     HA       HAL2     0.900000E-01   1.00800           0
     11530 MEMB     100      SLPC     HB       HAL2     0.900000E-01   1.00800           0
     11531 MEMB     100      SLPC     C2       CTL1     0.170000       12.0110           0
     11532 MEMB     100      SLPC     HS       HAL1     0.900000E-01   1.00800           0
     11533 MEMB     100      SLPC     O21      OSL     -0.490000       15.9994           0
     11534 MEMB     100      SLPC     C21      CL       0.900000       12.0110           0
     11535 MEMB     100      SLPC     O22      OBL     -0.630000       15.9994           0
     11536 MEMB     100      SLPC     C22      CTL2    -0.220000       12.0110           0
     11537 MEMB     100      SLPC     H2R      HAL2     0.900000E-01   1.00800           0
     11538 MEMB     100      SLPC     H2S      HAL2     0.900000E-01   1.00800           0
     11539 MEMB     100      SLPC     C3       CTL2     0.800000E-01   12.0110           0
     11540 MEMB     100      SLPC     HX       HAL2     0.900000E-01   1.00800           0
     11541 MEMB     100      SLPC     HY       HAL2     0.900000E-01   1.00800           0
     11542 MEMB     100      SLPC     O31      OSL     -0.490000       15.9994           0
     11543 MEMB     100      SLPC     C31      CL       0.900000       12.0110           0
     11544 MEMB     100      SLPC     O32      OBL     -0.630000       15.9994           0
     11545 MEMB     100      SLPC     C32      CTL2    -0.220000       12.0110           0
     11546 MEMB     100      SLPC     H2X      HAL2     0.900000E-01   1.00800           0
     11547 MEMB     100      SLPC     H2Y      HAL2     0.900000E-01   1.00800           0
     11548 MEMB     100      SLPC     C23      CTL2    -0.180000       12.0110           0
     11549 MEMB     100      SLPC     H3R      HAL2     0.900000E-01   1.00800           0
     11550 MEMB     100      SLPC     H3S      HAL2     0.900000E-01   1.00800           0
     11551 MEMB     100      SLPC     C24      CTL2    -0.180000       12.0110           0
     11552 MEMB     100      SLPC     H4R      HAL2     0.900000E-01   1.00800           0
     11553 MEMB     100      SLPC     H4S      HAL2     0.900000E-01   1.00800           0
     11554 MEMB     100      SLPC     C25      CTL2    -0.180000       12.0110           0
     11555 MEMB     100      SLPC     H5R      HAL2     0.900000E-01   1.00800           0
     11556 MEMB     100      SLPC     H5S      HAL2     0.900000E-01   1.00800           0
     11557 MEMB     100      SLPC     C26      CTL2    -0.180000       12.0110           0
     11558 MEMB     100      SLPC     H6R      HAL2     0.900000E-01   1.00800           0
     11559 MEMB     100      SLPC     H6S      HAL2     0.900000E-01   1.00800           0
     11560 MEMB     100      SLPC     C27      CTL2    -0.180000       12.0110           0
     11561 MEMB     100      SLPC     H7R      HAL2     0.900000E-01   1.00800           0
     11562 MEMB     100      SLPC     H7S      HAL2     0.900000E-01   1.00800           0
     11563 MEMB     100      SLPC     C28      CTL2    -0.180000       12.0110           0
     11564 MEMB     100      SLPC     H8R      HAL2     0.900000E-01   1.00800           0
     11565 MEMB     100      SLPC     H8S      HAL2     0.900000E-01   1.00800           0
     11566 MEMB     100      SLPC     C29      CEL1    -0.150000       12.0110           0
     11567 MEMB     100      SLPC     H9R      HEL1     0.150000       1.00800           0
     11568 MEMB     100      SLPC     C210     CEL1    -0.150000       12.0110           0
     11569 MEMB     100      SLPC     H10R     HEL1     0.150000       1.00800           0
     11570 MEMB     100      SLPC     C211     CTL2    -0.180000       12.0110           0
     11571 MEMB     100      SLPC     H11R     HAL2     0.900000E-01   1.00800           0
     11572 MEMB     100      SLPC     H11S     HAL2     0.900000E-01   1.00800           0
     11573 MEMB     100      SLPC     C212     CEL1    -0.150000       12.0110           0
     11574 MEMB     100      SLPC     H12R     HEL1     0.150000       1.00800           0
     11575 MEMB     100      SLPC     C213     CEL1    -0.150000       12.0110           0
     11576 MEMB     100      SLPC     H13R     HEL1     0.150000       1.00800           0
     11577 MEMB     100      SLPC     C214     CTL2    -0.180000       12.0110           0
     11578 MEMB     100      SLPC     H14R     HAL2     0.900000E-01   1.00800           0
     11579 MEMB     100      SLPC     H14S     HAL2     0.900000E-01   1.00800           0
     11580 MEMB     100      SLPC     C215     CTL2    -0.180000       12.0110           0
     11581 MEMB     100      SLPC     H15R     HAL2     0.900000E-01   1.00800           0
     11582 MEMB     100      SLPC     H15S     HAL2     0.900000E-01   1.00800           0
     11583 MEMB     100      SLPC     C216     CTL2    -0.180000       12.0110           0
     11584 MEMB     100      SLPC     H16R     HAL2     0.900000E-01   1.00800           0
     11585 MEMB     100      SLPC     H16S     HAL2     0.900000E-01   1.00800           0
     11586 MEMB     100      SLPC     C217     CTL2    -0.180000       12.0110           0
     11587 MEMB     100      SLPC     H17R     HAL2     0.900000E-01   1.00800           0
     11588 MEMB     100      SLPC     H17S     HAL2     0.900000E-01   1.00800           0
     11589 MEMB     100      SLPC     C218     CTL3    -0.270000       12.0110           0
     11590 MEMB     100      SLPC     H18R     HAL3     0.900000E-01   1.00800           0
     11591 MEMB     100      SLPC     H18S     HAL3     0.900000E-01   1.00800           0
     11592 MEMB     100      SLPC     H18T     HAL3     0.900000E-01   1.00800           0
     11593 MEMB     100      SLPC     C33      CTL2    -0.180000       12.0110           0
     11594 MEMB     100      SLPC     H3X      HAL2     0.900000E-01   1.00800           0
     11595 MEMB     100      SLPC     H3Y      HAL2     0.900000E-01   1.00800           0
     11596 MEMB     100      SLPC     C34      CTL2    -0.180000       12.0110           0
     11597 MEMB     100      SLPC     H4X      HAL2     0.900000E-01   1.00800           0
     11598 MEMB     100      SLPC     H4Y      HAL2     0.900000E-01   1.00800           0
     11599 MEMB     100      SLPC     C35      CTL2    -0.180000       12.0110           0
     11600 MEMB     100      SLPC     H5X      HAL2     0.900000E-01   1.00800           0
     11601 MEMB     100      SLPC     H5Y      HAL2     0.900000E-01   1.00800           0
     11602 MEMB     100      SLPC     C36      CTL2    -0.180000       12.0110           0
     11603 MEMB     100      SLPC     H6X      HAL2     0.900000E-01   1.00800           0
     11604 MEMB     100      SLPC     H6Y      HAL2     0.900000E-01   1.00800           0
     11605 MEMB     100      SLPC     C37      CTL2    -0.180000       12.0110           0
     11606 MEMB     100      SLPC     H7X      HAL2     0.900000E-01   1.00800           0
     11607 MEMB     100      SLPC     H7Y      HAL2     0.900000E-01   1.00800           0
     11608 MEMB     100      SLPC     C38      CTL2    -0.180000       12.0110           0
     11609 MEMB     100      SLPC     H8X      HAL2     0.900000E-01   1.00800           0
     11610 MEMB     100      SLPC     H8Y      HAL2     0.900000E-01   1.00800           0
     11611 MEMB     100      SLPC     C39      CTL2    -0.180000       12.0110           0
     11612 MEMB     100      SLPC     H9X      HAL2     0.900000E-01   1.00800           0
     11613 MEMB     100      SLPC     H9Y      HAL2     0.900000E-01   1.00800           0
     11614 MEMB     100      SLPC     C310     CTL2    -0.180000       12.0110           0
     11615 MEMB     100      SLPC     H10X     HAL2     0.900000E-01   1.00800           0
     11616 MEMB     100      SLPC     H10Y     HAL2     0.900000E-01   1.00800           0
     11617 MEMB     100      SLPC     C311     CTL2    -0.180000       12.0110           0
     11618 MEMB     100      SLPC     H11X     HAL2     0.900000E-01   1.00800           0
     11619 MEMB     100      SLPC     H11Y     HAL2     0.900000E-01   1.00800           0
     11620 MEMB     100      SLPC     C312     CTL2    -0.180000       12.0110           0
     11621 MEMB     100      SLPC     H12X     HAL2     0.900000E-01   1.00800           0
     11622 MEMB     100      SLPC     H12Y     HAL2     0.900000E-01   1.00800           0
     11623 MEMB     100      SLPC     C313     CTL2    -0.180000       12.0110           0
     11624 MEMB     100      SLPC     H13X     HAL2     0.900000E-01   1.00800           0
     11625 MEMB     100      SLPC     H13Y     HAL2     0.900000E-01   1.00800           0
     11626 MEMB     100      SLPC     C314     CTL2    -0.180000       12.0110           0
     11627 MEMB     100      SLPC     H14X     HAL2     0.900000E-01   1.00800           0
     11628 MEMB     100      SLPC     H14Y     HAL2     0.900000E-01   1.00800           0
     11629 MEMB     100      SLPC     C315     CTL2    -0.180000       12.0110           0
     11630 MEMB     100      SLPC     H15X     HAL2     0.900000E-01   1.00800           0
     11631 MEMB     100      SLPC     H15Y     HAL2     0.900000E-01   1.00800           0
     11632 MEMB     100      SLPC     C316     CTL2    -0.180000       12.0110           0
     11633 MEMB     100      SLPC     H16X     HAL2     0.900000E-01   1.00800           0
     11634 MEMB     100      SLPC     H16Y     HAL2     0.900000E-01   1.00800           0
     11635 MEMB     100      SLPC     C317     CTL2    -0.180000       12.0110           0
     11636 MEMB     100      SLPC     H17X     HAL2     0.900000E-01   1.00800           0
     11637 MEMB     100      SLPC     H17Y     HAL2     0.900000E-01   1.00800           0
     11638 MEMB     100      SLPC     C318     CTL3    -0.270000       12.0110           0
     11639 MEMB     100      SLPC     H18X     HAL3     0.900000E-01   1.00800           0
     11640 MEMB     100      SLPC     H18Y     HAL3     0.900000E-01   1.00800           0
     11641 MEMB     100      SLPC     H18Z     HAL3     0.900000E-01   1.00800           0
     11642 MEMB     101      CHL1     C3       CRL1     0.140000       12.0110           0
     11643 MEMB     101      CHL1     H3       HGA1     0.900000E-01   1.00800           0
     11644 MEMB     101      CHL1     O3       OHL     -0.660000       15.9994           0
     11645 MEMB     101      CHL1     H3'      HOL      0.430000       1.00800           0
     11646 MEMB     101      CHL1     C4       CRL2    -0.180000       12.0110           0
     11647 MEMB     101      CHL1     H4A      HGA2     0.900000E-01   1.00800           0
     11648 MEMB     101      CHL1     H4B      HGA2     0.900000E-01   1.00800           0
     11649 MEMB     101      CHL1     C5       CEL1      0.00000       12.0110           0
     11650 MEMB     101      CHL1     C6       CEL1    -0.150000       12.0110           0
     11651 MEMB     101      CHL1     H6       HEL1     0.150000       1.00800           0
     11652 MEMB     101      CHL1     C7       CRL2    -0.180000       12.0110           0
     11653 MEMB     101      CHL1     H7A      HGA2     0.900000E-01   1.00800           0
     11654 MEMB     101      CHL1     H7B      HGA2     0.900000E-01   1.00800           0
     11655 MEMB     101      CHL1     C8       CRL1    -0.900000E-01   12.0110           0
     11656 MEMB     101      CHL1     H8       HGA1     0.900000E-01   1.00800           0
     11657 MEMB     101      CHL1     C14      CRL1    -0.900000E-01   12.0110           0
     11658 MEMB     101      CHL1     H14      HGA1     0.900000E-01   1.00800           0
     11659 MEMB     101      CHL1     C15      CRL2    -0.180000       12.0110           0
     11660 MEMB     101      CHL1     H15A     HGA2     0.900000E-01   1.00800           0
     11661 MEMB     101      CHL1     H15B     HGA2     0.900000E-01   1.00800           0
     11662 MEMB     101      CHL1     C16      CRL2    -0.180000       12.0110           0
     11663 MEMB     101      CHL1     H16A     HGA2     0.900000E-01   1.00800           0
     11664 MEMB     101      CHL1     H16B     HGA2     0.900000E-01   1.00800           0
     11665 MEMB     101      CHL1     C17      CRL1    -0.900000E-01   12.0110           0
     11666 MEMB     101      CHL1     H17      HGA1     0.900000E-01   1.00800           0
     11667 MEMB     101      CHL1     C13      CRL1      0.00000       12.0110           0
     11668 MEMB     101      CHL1     C18      CTL3    -0.270000       12.0110           0
     11669 MEMB     101      CHL1     H18A     HAL3     0.900000E-01   1.00800           0
     11670 MEMB     101      CHL1     H18B     HAL3     0.900000E-01   1.00800           0
     11671 MEMB     101      CHL1     H18C     HAL3     0.900000E-01   1.00800           0
     11672 MEMB     101      CHL1     C12      CRL2    -0.180000       12.0110           0
     11673 MEMB     101      CHL1     H12A     HGA2     0.900000E-01   1.00800           0
     11674 MEMB     101      CHL1     H12B     HGA2     0.900000E-01   1.00800           0
     11675 MEMB     101      CHL1     C11      CRL2    -0.180000       12.0110           0
     11676 MEMB     101      CHL1     H11A     HGA2     0.900000E-01   1.00800           0
     11677 MEMB     101      CHL1     H11B     HGA2     0.900000E-01   1.00800           0
     11678 MEMB     101      CHL1     C9       CRL1    -0.900000E-01   12.0110           0
     11679 MEMB     101      CHL1     H9       HGA1     0.900000E-01   1.00800           0
     11680 MEMB     101      CHL1     C10      CRL1      0.00000       12.0110           0
     11681 MEMB     101      CHL1     C19      CTL3    -0.270000       12.0110           0
     11682 MEMB     101      CHL1     H19A     HAL3     0.900000E-01   1.00800           0
     11683 MEMB     101      CHL1     H19B     HAL3     0.900000E-01   1.00800           0
     11684 MEMB     101      CHL1     H19C     HAL3     0.900000E-01   1.00800           0
     11685 MEMB     101      CHL1     C1       CRL2    -0.180000       12.0110           0
     11686 MEMB     101      CHL1     H1A      HGA2     0.900000E-01   1.00800           0
     11687 MEMB     101      CHL1     H1B      HGA2     0.900000E-01   1.00800           0
     11688 MEMB     101      CHL1     C2       CRL2    -0.180000       12.0110           0
     11689 MEMB     101      CHL1     H2A      HGA2     0.900000E-01   1.00800           0
     11690 MEMB     101      CHL1     H2B      HGA2     0.900000E-01   1.00800           0
     11691 MEMB     101      CHL1     C20      CTL1    -0.900000E-01   12.0110           0
     11692 MEMB     101      CHL1     H20      HAL1     0.900000E-01   1.00800           0
     11693 MEMB     101      CHL1     C21      CTL3    -0.270000       12.0110           0
     11694 MEMB     101      CHL1     H21A     HAL3     0.900000E-01   1.00800           0
     11695 MEMB     101      CHL1     H21B     HAL3     0.900000E-01   1.00800           0
     11696 MEMB     101      CHL1     H21C     HAL3     0.900000E-01   1.00800           0
     11697 MEMB     101      CHL1     C22      CTL2    -0.180000       12.0110           0
     11698 MEMB     101      CHL1     H22A     HAL2     0.900000E-01   1.00800           0
     11699 MEMB     101      CHL1     H22B     HAL2     0.900000E-01   1.00800           0
     11700 MEMB     101      CHL1     C23      CTL2    -0.180000       12.0110           0
     11701 MEMB     101      CHL1     H23A     HAL2     0.900000E-01   1.00800           0
     11702 MEMB     101      CHL1     H23B     HAL2     0.900000E-01   1.00800           0
     11703 MEMB     101      CHL1     C24      CTL2    -0.180000       12.0110           0
     11704 MEMB     101      CHL1     H24A     HAL2     0.900000E-01   1.00800           0
     11705 MEMB     101      CHL1     H24B     HAL2     0.900000E-01   1.00800           0
     11706 MEMB     101      CHL1     C25      CTL1    -0.900000E-01   12.0110           0
     11707 MEMB     101      CHL1     H25      HAL1     0.900000E-01   1.00800           0
     11708 MEMB     101      CHL1     C26      CTL3    -0.270000       12.0110           0
     11709 MEMB     101      CHL1     H26A     HAL3     0.900000E-01   1.00800           0
     11710 MEMB     101      CHL1     H26B     HAL3     0.900000E-01   1.00800           0
     11711 MEMB     101      CHL1     H26C     HAL3     0.900000E-01   1.00800           0
     11712 MEMB     101      CHL1     C27      CTL3    -0.270000       12.0110           0
     11713 MEMB     101      CHL1     H27A     HAL3     0.900000E-01   1.00800           0
     11714 MEMB     101      CHL1     H27B     HAL3     0.900000E-01   1.00800           0
     11715 MEMB     101      CHL1     H27C     HAL3     0.900000E-01   1.00800           0
     11716 MEMB     102      POPC     N        NTL     -0.600000       14.0070           0
     11717 MEMB     102      POPC     C12      CTL2    -0.100000       12.0110           0
     11718 MEMB     102      POPC     H12A     HL       0.250000       1.00800           0
     11719 MEMB     102      POPC     H12B     HL       0.250000       1.00800           0
     11720 MEMB     102      POPC     C13      CTL5    -0.350000       12.0110           0
     11721 MEMB     102      POPC     H13A     HL       0.250000       1.00800           0
     11722 MEMB     102      POPC     H13B     HL       0.250000       1.00800           0
     11723 MEMB     102      POPC     H13C     HL       0.250000       1.00800           0
     11724 MEMB     102      POPC     C14      CTL5    -0.350000       12.0110           0
     11725 MEMB     102      POPC     H14A     HL       0.250000       1.00800           0
     11726 MEMB     102      POPC     H14B     HL       0.250000       1.00800           0
     11727 MEMB     102      POPC     H14C     HL       0.250000       1.00800           0
     11728 MEMB     102      POPC     C15      CTL5    -0.350000       12.0110           0
     11729 MEMB     102      POPC     H15A     HL       0.250000       1.00800           0
     11730 MEMB     102      POPC     H15B     HL       0.250000       1.00800           0
     11731 MEMB     102      POPC     H15C     HL       0.250000       1.00800           0
     11732 MEMB     102      POPC     C11      CTL2    -0.800000E-01   12.0110           0
     11733 MEMB     102      POPC     H11A     HAL2     0.900000E-01   1.00800           0
     11734 MEMB     102      POPC     H11B     HAL2     0.900000E-01   1.00800           0
     11735 MEMB     102      POPC     P        PL        1.50000       30.9740           0
     11736 MEMB     102      POPC     O13      O2L     -0.780000       15.9994           0
     11737 MEMB     102      POPC     O14      O2L     -0.780000       15.9994           0
     11738 MEMB     102      POPC     O12      OSLP    -0.570000       15.9994           0
     11739 MEMB     102      POPC     O11      OSLP    -0.570000       15.9994           0
     11740 MEMB     102      POPC     C1       CTL2    -0.800000E-01   12.0110           0
     11741 MEMB     102      POPC     HA       HAL2     0.900000E-01   1.00800           0
     11742 MEMB     102      POPC     HB       HAL2     0.900000E-01   1.00800           0
     11743 MEMB     102      POPC     C2       CTL1     0.170000       12.0110           0
     11744 MEMB     102      POPC     HS       HAL1     0.900000E-01   1.00800           0
     11745 MEMB     102      POPC     O21      OSL     -0.490000       15.9994           0
     11746 MEMB     102      POPC     C21      CL       0.900000       12.0110           0
     11747 MEMB     102      POPC     O22      OBL     -0.630000       15.9994           0
     11748 MEMB     102      POPC     C22      CTL2    -0.220000       12.0110           0
     11749 MEMB     102      POPC     H2R      HAL2     0.900000E-01   1.00800           0
     11750 MEMB     102      POPC     H2S      HAL2     0.900000E-01   1.00800           0
     11751 MEMB     102      POPC     C3       CTL2     0.800000E-01   12.0110           0
     11752 MEMB     102      POPC     HX       HAL2     0.900000E-01   1.00800           0
     11753 MEMB     102      POPC     HY       HAL2     0.900000E-01   1.00800           0
     11754 MEMB     102      POPC     O31      OSL     -0.490000       15.9994           0
     11755 MEMB     102      POPC     C31      CL       0.900000       12.0110           0
     11756 MEMB     102      POPC     O32      OBL     -0.630000       15.9994           0
     11757 MEMB     102      POPC     C32      CTL2    -0.220000       12.0110           0
     11758 MEMB     102      POPC     H2X      HAL2     0.900000E-01   1.00800           0
     11759 MEMB     102      POPC     H2Y      HAL2     0.900000E-01   1.00800           0
     11760 MEMB     102      POPC     C23      CTL2    -0.180000       12.0110           0
     11761 MEMB     102      POPC     H3R      HAL2     0.900000E-01   1.00800           0
     11762 MEMB     102      POPC     H3S      HAL2     0.900000E-01   1.00800           0
     11763 MEMB     102      POPC     C24      CTL2    -0.180000       12.0110           0
     11764 MEMB     102      POPC     H4R      HAL2     0.900000E-01   1.00800           0
     11765 MEMB     102      POPC     H4S      HAL2     0.900000E-01   1.00800           0
     11766 MEMB     102      POPC     C25      CTL2    -0.180000       12.0110           0
     11767 MEMB     102      POPC     H5R      HAL2     0.900000E-01   1.00800           0
     11768 MEMB     102      POPC     H5S      HAL2     0.900000E-01   1.00800           0
     11769 MEMB     102      POPC     C26      CTL2    -0.180000       12.0110           0
     11770 MEMB     102      POPC     H6R      HAL2     0.900000E-01   1.00800           0
     11771 MEMB     102      POPC     H6S      HAL2     0.900000E-01   1.00800           0
     11772 MEMB     102      POPC     C27      CTL2    -0.180000       12.0110           0
     11773 MEMB     102      POPC     H7R      HAL2     0.900000E-01   1.00800           0
     11774 MEMB     102      POPC     H7S      HAL2     0.900000E-01   1.00800           0
     11775 MEMB     102      POPC     C28      CTL2    -0.180000       12.0110           0
     11776 MEMB     102      POPC     H8R      HAL2     0.900000E-01   1.00800           0
     11777 MEMB     102      POPC     H8S      HAL2     0.900000E-01   1.00800           0
     11778 MEMB     102      POPC     C29      CEL1    -0.150000       12.0110           0
     11779 MEMB     102      POPC     H91      HEL1     0.150000       1.00800           0
     11780 MEMB     102      POPC     C210     CEL1    -0.150000       12.0110           0
     11781 MEMB     102      POPC     H101     HEL1     0.150000       1.00800           0
     11782 MEMB     102      POPC     C211     CTL2    -0.180000       12.0110           0
     11783 MEMB     102      POPC     H11R     HAL2     0.900000E-01   1.00800           0
     11784 MEMB     102      POPC     H11S     HAL2     0.900000E-01   1.00800           0
     11785 MEMB     102      POPC     C212     CTL2    -0.180000       12.0110           0
     11786 MEMB     102      POPC     H12R     HAL2     0.900000E-01   1.00800           0
     11787 MEMB     102      POPC     H12S     HAL2     0.900000E-01   1.00800           0
     11788 MEMB     102      POPC     C213     CTL2    -0.180000       12.0110           0
     11789 MEMB     102      POPC     H13R     HAL2     0.900000E-01   1.00800           0
     11790 MEMB     102      POPC     H13S     HAL2     0.900000E-01   1.00800           0
     11791 MEMB     102      POPC     C214     CTL2    -0.180000       12.0110           0
     11792 MEMB     102      POPC     H14R     HAL2     0.900000E-01   1.00800           0
     11793 MEMB     102      POPC     H14S     HAL2     0.900000E-01   1.00800           0
     11794 MEMB     102      POPC     C215     CTL2    -0.180000       12.0110           0
     11795 MEMB     102      POPC     H15R     HAL2     0.900000E-01   1.00800           0
     11796 MEMB     102      POPC     H15S     HAL2     0.900000E-01   1.00800           0
     11797 MEMB     102      POPC     C216     CTL2    -0.180000       12.0110           0
     11798 MEMB     102      POPC     H16R     HAL2     0.900000E-01   1.00800           0
     11799 MEMB     102      POPC     H16S     HAL2     0.900000E-01   1.00800           0
     11800 MEMB     102      POPC     C217     CTL2    -0.180000       12.0110           0
     11801 MEMB     102      POPC     H17R     HAL2     0.900000E-01   1.00800           0
     11802 MEMB     102      POPC     H17S     HAL2     0.900000E-01   1.00800           0
     11803 MEMB     102      POPC     C218     CTL3    -0.270000       12.0110           0
     11804 MEMB     102      POPC     H18R     HAL3     0.900000E-01   1.00800           0
     11805 MEMB     102      POPC     H18S     HAL3     0.900000E-01   1.00800           0
     11806 MEMB     102      POPC     H18T     HAL3     0.900000E-01   1.00800           0
     11807 MEMB     102      POPC     C33      CTL2    -0.180000       12.0110           0
     11808 MEMB     102      POPC     H3X      HAL2     0.900000E-01   1.00800           0
     11809 MEMB     102      POPC     H3Y      HAL2     0.900000E-01   1.00800           0
     11810 MEMB     102      POPC     C34      CTL2    -0.180000       12.0110           0
     11811 MEMB     102      POPC     H4X      HAL2     0.900000E-01   1.00800           0
     11812 MEMB     102      POPC     H4Y      HAL2     0.900000E-01   1.00800           0
     11813 MEMB     102      POPC     C35      CTL2    -0.180000       12.0110           0
     11814 MEMB     102      POPC     H5X      HAL2     0.900000E-01   1.00800           0
     11815 MEMB     102      POPC     H5Y      HAL2     0.900000E-01   1.00800           0
     11816 MEMB     102      POPC     C36      CTL2    -0.180000       12.0110           0
     11817 MEMB     102      POPC     H6X      HAL2     0.900000E-01   1.00800           0
     11818 MEMB     102      POPC     H6Y      HAL2     0.900000E-01   1.00800           0
     11819 MEMB     102      POPC     C37      CTL2    -0.180000       12.0110           0
     11820 MEMB     102      POPC     H7X      HAL2     0.900000E-01   1.00800           0
     11821 MEMB     102      POPC     H7Y      HAL2     0.900000E-01   1.00800           0
     11822 MEMB     102      POPC     C38      CTL2    -0.180000       12.0110           0
     11823 MEMB     102      POPC     H8X      HAL2     0.900000E-01   1.00800           0
     11824 MEMB     102      POPC     H8Y      HAL2     0.900000E-01   1.00800           0
     11825 MEMB     102      POPC     C39      CTL2    -0.180000       12.0110           0
     11826 MEMB     102      POPC     H9X      HAL2     0.900000E-01   1.00800           0
     11827 MEMB     102      POPC     H9Y      HAL2     0.900000E-01   1.00800           0
     11828 MEMB     102      POPC     C310     CTL2    -0.180000       12.0110           0
     11829 MEMB     102      POPC     H10X     HAL2     0.900000E-01   1.00800           0
     11830 MEMB     102      POPC     H10Y     HAL2     0.900000E-01   1.00800           0
     11831 MEMB     102      POPC     C311     CTL2    -0.180000       12.0110           0
     11832 MEMB     102      POPC     H11X     HAL2     0.900000E-01   1.00800           0
     11833 MEMB     102      POPC     H11Y     HAL2     0.900000E-01   1.00800           0
     11834 MEMB     102      POPC     C312     CTL2    -0.180000       12.0110           0
     11835 MEMB     102      POPC     H12X     HAL2     0.900000E-01   1.00800           0
     11836 MEMB     102      POPC     H12Y     HAL2     0.900000E-01   1.00800           0
     11837 MEMB     102      POPC     C313     CTL2    -0.180000       12.0110           0
     11838 MEMB     102      POPC     H13X     HAL2     0.900000E-01   1.00800           0
     11839 MEMB     102      POPC     H13Y     HAL2     0.900000E-01   1.00800           0
     11840 MEMB     102      POPC     C314     CTL2    -0.180000       12.0110           0
     11841 MEMB     102      POPC     H14X     HAL2     0.900000E-01   1.00800           0
     11842 MEMB     102      POPC     H14Y     HAL2     0.900000E-01   1.00800           0
     11843 MEMB     102      POPC     C315     CTL2    -0.180000       12.0110           0
     11844 MEMB     102      POPC     H15X     HAL2     0.900000E-01   1.00800           0
     11845 MEMB     102      POPC     H15Y     HAL2     0.900000E-01   1.00800           0
     11846 MEMB     102      POPC     C316     CTL3    -0.270000       12.0110           0
     11847 MEMB     102      POPC     H16X     HAL3     0.900000E-01   1.00800           0
     11848 MEMB     102      POPC     H16Y     HAL3     0.900000E-01   1.00800           0
     11849 MEMB     102      POPC     H16Z     HAL3     0.900000E-01   1.00800           0
     11850 MEMB     103      SAPE     N        NH3L    -0.300000       14.0070           0
     11851 MEMB     103      SAPE     HN1      HCL      0.330000       1.00800           0
     11852 MEMB     103      SAPE     HN2      HCL      0.330000       1.00800           0
     11853 MEMB     103      SAPE     HN3      HCL      0.330000       1.00800           0
     11854 MEMB     103      SAPE     C12      CTL2     0.130000       12.0110           0
     11855 MEMB     103      SAPE     H12A     HAL2     0.900000E-01   1.00800           0
     11856 MEMB     103      SAPE     H12B     HAL2     0.900000E-01   1.00800           0
     11857 MEMB     103      SAPE     C11      CTL2    -0.800000E-01   12.0110           0
     11858 MEMB     103      SAPE     H11A     HAL2     0.900000E-01   1.00800           0
     11859 MEMB     103      SAPE     H11B     HAL2     0.900000E-01   1.00800           0
     11860 MEMB     103      SAPE     P        PL        1.50000       30.9740           0
     11861 MEMB     103      SAPE     O13      O2L     -0.780000       15.9994           0
     11862 MEMB     103      SAPE     O14      O2L     -0.780000       15.9994           0
     11863 MEMB     103      SAPE     O12      OSLP    -0.570000       15.9994           0
     11864 MEMB     103      SAPE     O11      OSLP    -0.570000       15.9994           0
     11865 MEMB     103      SAPE     C1       CTL2    -0.800000E-01   12.0110           0
     11866 MEMB     103      SAPE     HA       HAL2     0.900000E-01   1.00800           0
     11867 MEMB     103      SAPE     HB       HAL2     0.900000E-01   1.00800           0
     11868 MEMB     103      SAPE     C2       CTL1     0.170000       12.0110           0
     11869 MEMB     103      SAPE     HS       HAL1     0.900000E-01   1.00800           0
     11870 MEMB     103      SAPE     O21      OSL     -0.490000       15.9994           0
     11871 MEMB     103      SAPE     C21      CL       0.900000       12.0110           0
     11872 MEMB     103      SAPE     O22      OBL     -0.630000       15.9994           0
     11873 MEMB     103      SAPE     C22      CTL2    -0.220000       12.0110           0
     11874 MEMB     103      SAPE     H2R      HAL2     0.900000E-01   1.00800           0
     11875 MEMB     103      SAPE     H2S      HAL2     0.900000E-01   1.00800           0
     11876 MEMB     103      SAPE     C3       CTL2     0.800000E-01   12.0110           0
     11877 MEMB     103      SAPE     HX       HAL2     0.900000E-01   1.00800           0
     11878 MEMB     103      SAPE     HY       HAL2     0.900000E-01   1.00800           0
     11879 MEMB     103      SAPE     O31      OSL     -0.490000       15.9994           0
     11880 MEMB     103      SAPE     C31      CL       0.900000       12.0110           0
     11881 MEMB     103      SAPE     O32      OBL     -0.630000       15.9994           0
     11882 MEMB     103      SAPE     C32      CTL2    -0.220000       12.0110           0
     11883 MEMB     103      SAPE     H2X      HAL2     0.900000E-01   1.00800           0
     11884 MEMB     103      SAPE     H2Y      HAL2     0.900000E-01   1.00800           0
     11885 MEMB     103      SAPE     C23      CTL2    -0.180000       12.0110           0
     11886 MEMB     103      SAPE     H3R      HAL2     0.900000E-01   1.00800           0
     11887 MEMB     103      SAPE     H3S      HAL2     0.900000E-01   1.00800           0
     11888 MEMB     103      SAPE     C24      CTL2    -0.180000       12.0110           0
     11889 MEMB     103      SAPE     H4R      HAL2     0.900000E-01   1.00800           0
     11890 MEMB     103      SAPE     H4S      HAL2     0.900000E-01   1.00800           0
     11891 MEMB     103      SAPE     C25      CEL1    -0.150000       12.0110           0
     11892 MEMB     103      SAPE     H5R      HEL1     0.150000       1.00800           0
     11893 MEMB     103      SAPE     C26      CEL1    -0.150000       12.0110           0
     11894 MEMB     103      SAPE     H6R      HEL1     0.150000       1.00800           0
     11895 MEMB     103      SAPE     C27      CTL2    -0.180000       12.0110           0
     11896 MEMB     103      SAPE     H7R      HAL2     0.900000E-01   1.00800           0
     11897 MEMB     103      SAPE     H7S      HAL2     0.900000E-01   1.00800           0
     11898 MEMB     103      SAPE     C28      CEL1    -0.150000       12.0110           0
     11899 MEMB     103      SAPE     H8R      HEL1     0.150000       1.00800           0
     11900 MEMB     103      SAPE     C29      CEL1    -0.150000       12.0110           0
     11901 MEMB     103      SAPE     H9R      HEL1     0.150000       1.00800           0
     11902 MEMB     103      SAPE     C210     CTL2    -0.180000       12.0110           0
     11903 MEMB     103      SAPE     H10R     HAL2     0.900000E-01   1.00800           0
     11904 MEMB     103      SAPE     H10S     HAL2     0.900000E-01   1.00800           0
     11905 MEMB     103      SAPE     C211     CEL1    -0.150000       12.0110           0
     11906 MEMB     103      SAPE     H11R     HEL1     0.150000       1.00800           0
     11907 MEMB     103      SAPE     C212     CEL1    -0.150000       12.0110           0
     11908 MEMB     103      SAPE     H12R     HEL1     0.150000       1.00800           0
     11909 MEMB     103      SAPE     C213     CTL2    -0.180000       12.0110           0
     11910 MEMB     103      SAPE     H13R     HAL2     0.900000E-01   1.00800           0
     11911 MEMB     103      SAPE     H13S     HAL2     0.900000E-01   1.00800           0
     11912 MEMB     103      SAPE     C214     CEL1    -0.150000       12.0110           0
     11913 MEMB     103      SAPE     H14R     HEL1     0.150000       1.00800           0
     11914 MEMB     103      SAPE     C215     CEL1    -0.150000       12.0110           0
     11915 MEMB     103      SAPE     H15R     HEL1     0.150000       1.00800           0
     11916 MEMB     103      SAPE     C216     CTL2    -0.180000       12.0110           0
     11917 MEMB     103      SAPE     H16R     HAL2     0.900000E-01   1.00800           0
     11918 MEMB     103      SAPE     H16S     HAL2     0.900000E-01   1.00800           0
     11919 MEMB     103      SAPE     C217     CTL2    -0.180000       12.0110           0
     11920 MEMB     103      SAPE     H17R     HAL2     0.900000E-01   1.00800           0
     11921 MEMB     103      SAPE     H17S     HAL2     0.900000E-01   1.00800           0
     11922 MEMB     103      SAPE     C218     CTL2    -0.180000       12.0110           0
     11923 MEMB     103      SAPE     H18R     HAL2     0.900000E-01   1.00800           0
     11924 MEMB     103      SAPE     H18S     HAL2     0.900000E-01   1.00800           0
     11925 MEMB     103      SAPE     C219     CTL2    -0.180000       12.0110           0
     11926 MEMB     103      SAPE     H19R     HAL2     0.900000E-01   1.00800           0
     11927 MEMB     103      SAPE     H19S     HAL2     0.900000E-01   1.00800           0
     11928 MEMB     103      SAPE     C220     CTL3    -0.270000       12.0110           0
     11929 MEMB     103      SAPE     H20R     HAL3     0.900000E-01   1.00800           0
     11930 MEMB     103      SAPE     H20S     HAL3     0.900000E-01   1.00800           0
     11931 MEMB     103      SAPE     H20T     HAL3     0.900000E-01   1.00800           0
     11932 MEMB     103      SAPE     C33      CTL2    -0.180000       12.0110           0
     11933 MEMB     103      SAPE     H3X      HAL2     0.900000E-01   1.00800           0
     11934 MEMB     103      SAPE     H3Y      HAL2     0.900000E-01   1.00800           0
     11935 MEMB     103      SAPE     C34      CTL2    -0.180000       12.0110           0
     11936 MEMB     103      SAPE     H4X      HAL2     0.900000E-01   1.00800           0
     11937 MEMB     103      SAPE     H4Y      HAL2     0.900000E-01   1.00800           0
     11938 MEMB     103      SAPE     C35      CTL2    -0.180000       12.0110           0
     11939 MEMB     103      SAPE     H5X      HAL2     0.900000E-01   1.00800           0
     11940 MEMB     103      SAPE     H5Y      HAL2     0.900000E-01   1.00800           0
     11941 MEMB     103      SAPE     C36      CTL2    -0.180000       12.0110           0
     11942 MEMB     103      SAPE     H6X      HAL2     0.900000E-01   1.00800           0
     11943 MEMB     103      SAPE     H6Y      HAL2     0.900000E-01   1.00800           0
     11944 MEMB     103      SAPE     C37      CTL2    -0.180000       12.0110           0
     11945 MEMB     103      SAPE     H7X      HAL2     0.900000E-01   1.00800           0
     11946 MEMB     103      SAPE     H7Y      HAL2     0.900000E-01   1.00800           0
     11947 MEMB     103      SAPE     C38      CTL2    -0.180000       12.0110           0
     11948 MEMB     103      SAPE     H8X      HAL2     0.900000E-01   1.00800           0
     11949 MEMB     103      SAPE     H8Y      HAL2     0.900000E-01   1.00800           0
     11950 MEMB     103      SAPE     C39      CTL2    -0.180000       12.0110           0
     11951 MEMB     103      SAPE     H9X      HAL2     0.900000E-01   1.00800           0
     11952 MEMB     103      SAPE     H9Y      HAL2     0.900000E-01   1.00800           0
     11953 MEMB     103      SAPE     C310     CTL2    -0.180000       12.0110           0
     11954 MEMB     103      SAPE     H10X     HAL2     0.900000E-01   1.00800           0
     11955 MEMB     103      SAPE     H10Y     HAL2     0.900000E-01   1.00800           0
     11956 MEMB     103      SAPE     C311     CTL2    -0.180000       12.0110           0
     11957 MEMB     103      SAPE     H11X     HAL2     0.900000E-01   1.00800           0
     11958 MEMB     103      SAPE     H11Y     HAL2     0.900000E-01   1.00800           0
     11959 MEMB     103      SAPE     C312     CTL2    -0.180000       12.0110           0
     11960 MEMB     103      SAPE     H12X     HAL2     0.900000E-01   1.00800           0
     11961 MEMB     103      SAPE     H12Y     HAL2     0.900000E-01   1.00800           0
     11962 MEMB     103      SAPE     C313     CTL2    -0.180000       12.0110           0
     11963 MEMB     103      SAPE     H13X     HAL2     0.900000E-01   1.00800           0
     11964 MEMB     103      SAPE     H13Y     HAL2     0.900000E-01   1.00800           0
     11965 MEMB     103      SAPE     C314     CTL2    -0.180000       12.0110           0
     11966 MEMB     103      SAPE     H14X     HAL2     0.900000E-01   1.00800           0
     11967 MEMB     103      SAPE     H14Y     HAL2     0.900000E-01   1.00800           0
     11968 MEMB     103      SAPE     C315     CTL2    -0.180000       12.0110           0
     11969 MEMB     103      SAPE     H15X     HAL2     0.900000E-01   1.00800           0
     11970 MEMB     103      SAPE     H15Y     HAL2     0.900000E-01   1.00800           0
     11971 MEMB     103      SAPE     C316     CTL2    -0.180000       12.0110           0
     11972 MEMB     103      SAPE     H16X     HAL2     0.900000E-01   1.00800           0
     11973 MEMB     103      SAPE     H16Y     HAL2     0.900000E-01   1.00800           0
     11974 MEMB     103      SAPE     C317     CTL2    -0.180000       12.0110           0
     11975 MEMB     103      SAPE     H17X     HAL2     0.900000E-01   1.00800           0
     11976 MEMB     103      SAPE     H17Y     HAL2     0.900000E-01   1.00800           0
     11977 MEMB     103      SAPE     C318     CTL3    -0.270000       12.0110           0
     11978 MEMB     103      SAPE     H18X     HAL3     0.900000E-01   1.00800           0
     11979 MEMB     103      SAPE     H18Y     HAL3     0.900000E-01   1.00800           0
     11980 MEMB     103      SAPE     H18Z     HAL3     0.900000E-01   1.00800           0
     11981 MEMB     104      OSM      N        NTL     -0.600000       14.0070           0
     11982 MEMB     104      OSM      C15      CTL5    -0.350000       12.0110           0
     11983 MEMB     104      OSM      H15A     HL       0.250000       1.00800           0
     11984 MEMB     104      OSM      H15B     HL       0.250000       1.00800           0
     11985 MEMB     104      OSM      H15C     HL       0.250000       1.00800           0
     11986 MEMB     104      OSM      C14      CTL5    -0.350000       12.0110           0
     11987 MEMB     104      OSM      H14A     HL       0.250000       1.00800           0
     11988 MEMB     104      OSM      H14B     HL       0.250000       1.00800           0
     11989 MEMB     104      OSM      H14C     HL       0.250000       1.00800           0
     11990 MEMB     104      OSM      C13      CTL5    -0.350000       12.0110           0
     11991 MEMB     104      OSM      H13A     HL       0.250000       1.00800           0
     11992 MEMB     104      OSM      H13B     HL       0.250000       1.00800           0
     11993 MEMB     104      OSM      H13C     HL       0.250000       1.00800           0
     11994 MEMB     104      OSM      C12      CTL2    -0.100000       12.0110           0
     11995 MEMB     104      OSM      H12A     HL       0.250000       1.00800           0
     11996 MEMB     104      OSM      H12B     HL       0.250000       1.00800           0
     11997 MEMB     104      OSM      C11      CTL2    -0.800000E-01   12.0110           0
     11998 MEMB     104      OSM      H11A     HAL2     0.900000E-01   1.00800           0
     11999 MEMB     104      OSM      H11B     HAL2     0.900000E-01   1.00800           0
     12000 MEMB     104      OSM      P        PL        1.50000       30.9740           0
     12001 MEMB     104      OSM      O13      O2L     -0.780000       15.9994           0
     12002 MEMB     104      OSM      O14      O2L     -0.780000       15.9994           0
     12003 MEMB     104      OSM      O11      OSLP    -0.570000       15.9994           0
     12004 MEMB     104      OSM      O12      OSLP    -0.570000       15.9994           0
     12005 MEMB     104      OSM      C1S      CTL2    -0.800000E-01   12.0110           0
     12006 MEMB     104      OSM      H1S      HAL2     0.900000E-01   1.00800           0
     12007 MEMB     104      OSM      H1T      HAL2     0.900000E-01   1.00800           0
     12008 MEMB     104      OSM      NF       NHL     -0.700000       14.0070           0
     12009 MEMB     104      OSM      HNF      H        0.350000       1.00800           0
     12010 MEMB     104      OSM      C2S      CTL1     0.300000       12.0110           0
     12011 MEMB     104      OSM      H2S      HAL1     0.500000E-01   1.00800           0
     12012 MEMB     104      OSM      C3S      CTO1     0.500000       12.0110           0
     12013 MEMB     104      OSM      H3S      HAL1    -0.110000       1.00800           0
     12014 MEMB     104      OSM      O3       OHL     -0.690000       15.9994           0
     12015 MEMB     104      OSM      HO3      HOL      0.300000       1.00800           0
     12016 MEMB     104      OSM      C4S      CEL3    -0.150000       12.0110           0
     12017 MEMB     104      OSM      H4S      HEL1     0.150000       1.00800           0
     12018 MEMB     104      OSM      C5S      CEL3    -0.150000       12.0110           0
     12019 MEMB     104      OSM      H5S      HEL1     0.150000       1.00800           0
     12020 MEMB     104      OSM      C6S      CTL2    -0.180000       12.0110           0
     12021 MEMB     104      OSM      H6S      HAL2     0.900000E-01   1.00800           0
     12022 MEMB     104      OSM      H6T      HAL2     0.900000E-01   1.00800           0
     12023 MEMB     104      OSM      C7S      CTL2    -0.180000       12.0110           0
     12024 MEMB     104      OSM      H7S      HAL2     0.900000E-01   1.00800           0
     12025 MEMB     104      OSM      H7T      HAL2     0.900000E-01   1.00800           0
     12026 MEMB     104      OSM      C8S      CTL2    -0.180000       12.0110           0
     12027 MEMB     104      OSM      H8S      HAL2     0.900000E-01   1.00800           0
     12028 MEMB     104      OSM      H8T      HAL2     0.900000E-01   1.00800           0
     12029 MEMB     104      OSM      C9S      CTL2    -0.180000       12.0110           0
     12030 MEMB     104      OSM      H9S      HAL2     0.900000E-01   1.00800           0
     12031 MEMB     104      OSM      H9T      HAL2     0.900000E-01   1.00800           0
     12032 MEMB     104      OSM      C10S     CTL2    -0.180000       12.0110           0
     12033 MEMB     104      OSM      H10S     HAL2     0.900000E-01   1.00800           0
     12034 MEMB     104      OSM      H10T     HAL2     0.900000E-01   1.00800           0
     12035 MEMB     104      OSM      C11S     CTL2    -0.180000       12.0110           0
     12036 MEMB     104      OSM      H11S     HAL2     0.900000E-01   1.00800           0
     12037 MEMB     104      OSM      H11T     HAL2     0.900000E-01   1.00800           0
     12038 MEMB     104      OSM      C12S     CTL2    -0.180000       12.0110           0
     12039 MEMB     104      OSM      H12S     HAL2     0.900000E-01   1.00800           0
     12040 MEMB     104      OSM      H12T     HAL2     0.900000E-01   1.00800           0
     12041 MEMB     104      OSM      C13S     CTL2    -0.180000       12.0110           0
     12042 MEMB     104      OSM      H13S     HAL2     0.900000E-01   1.00800           0
     12043 MEMB     104      OSM      H13T     HAL2     0.900000E-01   1.00800           0
     12044 MEMB     104      OSM      C14S     CTL2    -0.180000       12.0110           0
     12045 MEMB     104      OSM      H14S     HAL2     0.900000E-01   1.00800           0
     12046 MEMB     104      OSM      H14T     HAL2     0.900000E-01   1.00800           0
     12047 MEMB     104      OSM      C15S     CTL2    -0.180000       12.0110           0
     12048 MEMB     104      OSM      H15S     HAL2     0.900000E-01   1.00800           0
     12049 MEMB     104      OSM      H15T     HAL2     0.900000E-01   1.00800           0
     12050 MEMB     104      OSM      C16S     CTL2    -0.180000       12.0110           0
     12051 MEMB     104      OSM      H16S     HAL2     0.900000E-01   1.00800           0
     12052 MEMB     104      OSM      H16T     HAL2     0.900000E-01   1.00800           0
     12053 MEMB     104      OSM      C17S     CTL2    -0.180000       12.0110           0
     12054 MEMB     104      OSM      H17S     HAL2     0.900000E-01   1.00800           0
     12055 MEMB     104      OSM      H17T     HAL2     0.900000E-01   1.00800           0
     12056 MEMB     104      OSM      C18S     CTL3    -0.270000       12.0110           0
     12057 MEMB     104      OSM      H18S     HAL3     0.900000E-01   1.00800           0
     12058 MEMB     104      OSM      H18T     HAL3     0.900000E-01   1.00800           0
     12059 MEMB     104      OSM      H18U     HAL3     0.900000E-01   1.00800           0
     12060 MEMB     104      OSM      C1F      C        0.550000       12.0110           0
     12061 MEMB     104      OSM      OF       O       -0.600000       15.9994           0
     12062 MEMB     104      OSM      C2F      CTL2    -0.700000E-01   12.0110           0
     12063 MEMB     104      OSM      H2F      HAL2     0.600000E-01   1.00800           0
     12064 MEMB     104      OSM      H2G      HAL2     0.600000E-01   1.00800           0
     12065 MEMB     104      OSM      C3F      CTL2    -0.180000       12.0110           0
     12066 MEMB     104      OSM      H3F      HAL2     0.900000E-01   1.00800           0
     12067 MEMB     104      OSM      H3G      HAL2     0.900000E-01   1.00800           0
     12068 MEMB     104      OSM      C4F      CTL2    -0.180000       12.0110           0
     12069 MEMB     104      OSM      H4F      HAL2     0.900000E-01   1.00800           0
     12070 MEMB     104      OSM      H4G      HAL2     0.900000E-01   1.00800           0
     12071 MEMB     104      OSM      C5F      CTL2    -0.180000       12.0110           0
     12072 MEMB     104      OSM      H5F      HAL2     0.900000E-01   1.00800           0
     12073 MEMB     104      OSM      H5G      HAL2     0.900000E-01   1.00800           0
     12074 MEMB     104      OSM      C6F      CTL2    -0.180000       12.0110           0
     12075 MEMB     104      OSM      H6F      HAL2     0.900000E-01   1.00800           0
     12076 MEMB     104      OSM      H6G      HAL2     0.900000E-01   1.00800           0
     12077 MEMB     104      OSM      C7F      CTL2    -0.180000       12.0110           0
     12078 MEMB     104      OSM      H7F      HAL2     0.900000E-01   1.00800           0
     12079 MEMB     104      OSM      H7G      HAL2     0.900000E-01   1.00800           0
     12080 MEMB     104      OSM      C8F      CTL2    -0.180000       12.0110           0
     12081 MEMB     104      OSM      H8F      HAL2     0.900000E-01   1.00800           0
     12082 MEMB     104      OSM      H8G      HAL2     0.900000E-01   1.00800           0
     12083 MEMB     104      OSM      C9F      CEL1    -0.150000       12.0110           0
     12084 MEMB     104      OSM      H9F      HEL1     0.150000       1.00800           0
     12085 MEMB     104      OSM      C10F     CEL1    -0.150000       12.0110           0
     12086 MEMB     104      OSM      H10F     HEL1     0.150000       1.00800           0
     12087 MEMB     104      OSM      C11F     CTL2    -0.180000       12.0110           0
     12088 MEMB     104      OSM      H11F     HAL2     0.900000E-01   1.00800           0
     12089 MEMB     104      OSM      H11G     HAL2     0.900000E-01   1.00800           0
     12090 MEMB     104      OSM      C12F     CTL2    -0.180000       12.0110           0
     12091 MEMB     104      OSM      H12F     HAL2     0.900000E-01   1.00800           0
     12092 MEMB     104      OSM      H12G     HAL2     0.900000E-01   1.00800           0
     12093 MEMB     104      OSM      C13F     CTL2    -0.180000       12.0110           0
     12094 MEMB     104      OSM      H13F     HAL2     0.900000E-01   1.00800           0
     12095 MEMB     104      OSM      H13G     HAL2     0.900000E-01   1.00800           0
     12096 MEMB     104      OSM      C14F     CTL2    -0.180000       12.0110           0
     12097 MEMB     104      OSM      H14F     HAL2     0.900000E-01   1.00800           0
     12098 MEMB     104      OSM      H14G     HAL2     0.900000E-01   1.00800           0
     12099 MEMB     104      OSM      C15F     CTL2    -0.180000       12.0110           0
     12100 MEMB     104      OSM      H15F     HAL2     0.900000E-01   1.00800           0
     12101 MEMB     104      OSM      H15G     HAL2     0.900000E-01   1.00800           0
     12102 MEMB     104      OSM      C16F     CTL2    -0.180000       12.0110           0
     12103 MEMB     104      OSM      H16F     HAL2     0.900000E-01   1.00800           0
     12104 MEMB     104      OSM      H16G     HAL2     0.900000E-01   1.00800           0
     12105 MEMB     104      OSM      C17F     CTL2    -0.180000       12.0110           0
     12106 MEMB     104      OSM      H17F     HAL2     0.900000E-01   1.00800           0
     12107 MEMB     104      OSM      H17G     HAL2     0.900000E-01   1.00800           0
     12108 MEMB     104      OSM      C18F     CTL3    -0.270000       12.0110           0
     12109 MEMB     104      OSM      H18F     HAL3     0.900000E-01   1.00800           0
     12110 MEMB     104      OSM      H18G     HAL3     0.900000E-01   1.00800           0
     12111 MEMB     104      OSM      H18H     HAL3     0.900000E-01   1.00800           0
     12112 MEMB     105      CHL1     C3       CRL1     0.140000       12.0110           0
     12113 MEMB     105      CHL1     H3       HGA1     0.900000E-01   1.00800           0
     12114 MEMB     105      CHL1     O3       OHL     -0.660000       15.9994           0
     12115 MEMB     105      CHL1     H3'      HOL      0.430000       1.00800           0
     12116 MEMB     105      CHL1     C4       CRL2    -0.180000       12.0110           0
     12117 MEMB     105      CHL1     H4A      HGA2     0.900000E-01   1.00800           0
     12118 MEMB     105      CHL1     H4B      HGA2     0.900000E-01   1.00800           0
     12119 MEMB     105      CHL1     C5       CEL1      0.00000       12.0110           0
     12120 MEMB     105      CHL1     C6       CEL1    -0.150000       12.0110           0
     12121 MEMB     105      CHL1     H6       HEL1     0.150000       1.00800           0
     12122 MEMB     105      CHL1     C7       CRL2    -0.180000       12.0110           0
     12123 MEMB     105      CHL1     H7A      HGA2     0.900000E-01   1.00800           0
     12124 MEMB     105      CHL1     H7B      HGA2     0.900000E-01   1.00800           0
     12125 MEMB     105      CHL1     C8       CRL1    -0.900000E-01   12.0110           0
     12126 MEMB     105      CHL1     H8       HGA1     0.900000E-01   1.00800           0
     12127 MEMB     105      CHL1     C14      CRL1    -0.900000E-01   12.0110           0
     12128 MEMB     105      CHL1     H14      HGA1     0.900000E-01   1.00800           0
     12129 MEMB     105      CHL1     C15      CRL2    -0.180000       12.0110           0
     12130 MEMB     105      CHL1     H15A     HGA2     0.900000E-01   1.00800           0
     12131 MEMB     105      CHL1     H15B     HGA2     0.900000E-01   1.00800           0
     12132 MEMB     105      CHL1     C16      CRL2    -0.180000       12.0110           0
     12133 MEMB     105      CHL1     H16A     HGA2     0.900000E-01   1.00800           0
     12134 MEMB     105      CHL1     H16B     HGA2     0.900000E-01   1.00800           0
     12135 MEMB     105      CHL1     C17      CRL1    -0.900000E-01   12.0110           0
     12136 MEMB     105      CHL1     H17      HGA1     0.900000E-01   1.00800           0
     12137 MEMB     105      CHL1     C13      CRL1      0.00000       12.0110           0
     12138 MEMB     105      CHL1     C18      CTL3    -0.270000       12.0110           0
     12139 MEMB     105      CHL1     H18A     HAL3     0.900000E-01   1.00800           0
     12140 MEMB     105      CHL1     H18B     HAL3     0.900000E-01   1.00800           0
     12141 MEMB     105      CHL1     H18C     HAL3     0.900000E-01   1.00800           0
     12142 MEMB     105      CHL1     C12      CRL2    -0.180000       12.0110           0
     12143 MEMB     105      CHL1     H12A     HGA2     0.900000E-01   1.00800           0
     12144 MEMB     105      CHL1     H12B     HGA2     0.900000E-01   1.00800           0
     12145 MEMB     105      CHL1     C11      CRL2    -0.180000       12.0110           0
     12146 MEMB     105      CHL1     H11A     HGA2     0.900000E-01   1.00800           0
     12147 MEMB     105      CHL1     H11B     HGA2     0.900000E-01   1.00800           0
     12148 MEMB     105      CHL1     C9       CRL1    -0.900000E-01   12.0110           0
     12149 MEMB     105      CHL1     H9       HGA1     0.900000E-01   1.00800           0
     12150 MEMB     105      CHL1     C10      CRL1      0.00000       12.0110           0
     12151 MEMB     105      CHL1     C19      CTL3    -0.270000       12.0110           0
     12152 MEMB     105      CHL1     H19A     HAL3     0.900000E-01   1.00800           0
     12153 MEMB     105      CHL1     H19B     HAL3     0.900000E-01   1.00800           0
     12154 MEMB     105      CHL1     H19C     HAL3     0.900000E-01   1.00800           0
     12155 MEMB     105      CHL1     C1       CRL2    -0.180000       12.0110           0
     12156 MEMB     105      CHL1     H1A      HGA2     0.900000E-01   1.00800           0
     12157 MEMB     105      CHL1     H1B      HGA2     0.900000E-01   1.00800           0
     12158 MEMB     105      CHL1     C2       CRL2    -0.180000       12.0110           0
     12159 MEMB     105      CHL1     H2A      HGA2     0.900000E-01   1.00800           0
     12160 MEMB     105      CHL1     H2B      HGA2     0.900000E-01   1.00800           0
     12161 MEMB     105      CHL1     C20      CTL1    -0.900000E-01   12.0110           0
     12162 MEMB     105      CHL1     H20      HAL1     0.900000E-01   1.00800           0
     12163 MEMB     105      CHL1     C21      CTL3    -0.270000       12.0110           0
     12164 MEMB     105      CHL1     H21A     HAL3     0.900000E-01   1.00800           0
     12165 MEMB     105      CHL1     H21B     HAL3     0.900000E-01   1.00800           0
     12166 MEMB     105      CHL1     H21C     HAL3     0.900000E-01   1.00800           0
     12167 MEMB     105      CHL1     C22      CTL2    -0.180000       12.0110           0
     12168 MEMB     105      CHL1     H22A     HAL2     0.900000E-01   1.00800           0
     12169 MEMB     105      CHL1     H22B     HAL2     0.900000E-01   1.00800           0
     12170 MEMB     105      CHL1     C23      CTL2    -0.180000       12.0110           0
     12171 MEMB     105      CHL1     H23A     HAL2     0.900000E-01   1.00800           0
     12172 MEMB     105      CHL1     H23B     HAL2     0.900000E-01   1.00800           0
     12173 MEMB     105      CHL1     C24      CTL2    -0.180000       12.0110           0
     12174 MEMB     105      CHL1     H24A     HAL2     0.900000E-01   1.00800           0
     12175 MEMB     105      CHL1     H24B     HAL2     0.900000E-01   1.00800           0
     12176 MEMB     105      CHL1     C25      CTL1    -0.900000E-01   12.0110           0
     12177 MEMB     105      CHL1     H25      HAL1     0.900000E-01   1.00800           0
     12178 MEMB     105      CHL1     C26      CTL3    -0.270000       12.0110           0
     12179 MEMB     105      CHL1     H26A     HAL3     0.900000E-01   1.00800           0
     12180 MEMB     105      CHL1     H26B     HAL3     0.900000E-01   1.00800           0
     12181 MEMB     105      CHL1     H26C     HAL3     0.900000E-01   1.00800           0
     12182 MEMB     105      CHL1     C27      CTL3    -0.270000       12.0110           0
     12183 MEMB     105      CHL1     H27A     HAL3     0.900000E-01   1.00800           0
     12184 MEMB     105      CHL1     H27B     HAL3     0.900000E-01   1.00800           0
     12185 MEMB     105      CHL1     H27C     HAL3     0.900000E-01   1.00800           0
     12186 MEMB     106      CHL1     C3       CRL1     0.140000       12.0110           0
     12187 MEMB     106      CHL1     H3       HGA1     0.900000E-01   1.00800           0
     12188 MEMB     106      CHL1     O3       OHL     -0.660000       15.9994           0
     12189 MEMB     106      CHL1     H3'      HOL      0.430000       1.00800           0
     12190 MEMB     106      CHL1     C4       CRL2    -0.180000       12.0110           0
     12191 MEMB     106      CHL1     H4A      HGA2     0.900000E-01   1.00800           0
     12192 MEMB     106      CHL1     H4B      HGA2     0.900000E-01   1.00800           0
     12193 MEMB     106      CHL1     C5       CEL1      0.00000       12.0110           0
     12194 MEMB     106      CHL1     C6       CEL1    -0.150000       12.0110           0
     12195 MEMB     106      CHL1     H6       HEL1     0.150000       1.00800           0
     12196 MEMB     106      CHL1     C7       CRL2    -0.180000       12.0110           0
     12197 MEMB     106      CHL1     H7A      HGA2     0.900000E-01   1.00800           0
     12198 MEMB     106      CHL1     H7B      HGA2     0.900000E-01   1.00800           0
     12199 MEMB     106      CHL1     C8       CRL1    -0.900000E-01   12.0110           0
     12200 MEMB     106      CHL1     H8       HGA1     0.900000E-01   1.00800           0
     12201 MEMB     106      CHL1     C14      CRL1    -0.900000E-01   12.0110           0
     12202 MEMB     106      CHL1     H14      HGA1     0.900000E-01   1.00800           0
     12203 MEMB     106      CHL1     C15      CRL2    -0.180000       12.0110           0
     12204 MEMB     106      CHL1     H15A     HGA2     0.900000E-01   1.00800           0
     12205 MEMB     106      CHL1     H15B     HGA2     0.900000E-01   1.00800           0
     12206 MEMB     106      CHL1     C16      CRL2    -0.180000       12.0110           0
     12207 MEMB     106      CHL1     H16A     HGA2     0.900000E-01   1.00800           0
     12208 MEMB     106      CHL1     H16B     HGA2     0.900000E-01   1.00800           0
     12209 MEMB     106      CHL1     C17      CRL1    -0.900000E-01   12.0110           0
     12210 MEMB     106      CHL1     H17      HGA1     0.900000E-01   1.00800           0
     12211 MEMB     106      CHL1     C13      CRL1      0.00000       12.0110           0
     12212 MEMB     106      CHL1     C18      CTL3    -0.270000       12.0110           0
     12213 MEMB     106      CHL1     H18A     HAL3     0.900000E-01   1.00800           0
     12214 MEMB     106      CHL1     H18B     HAL3     0.900000E-01   1.00800           0
     12215 MEMB     106      CHL1     H18C     HAL3     0.900000E-01   1.00800           0
     12216 MEMB     106      CHL1     C12      CRL2    -0.180000       12.0110           0
     12217 MEMB     106      CHL1     H12A     HGA2     0.900000E-01   1.00800           0
     12218 MEMB     106      CHL1     H12B     HGA2     0.900000E-01   1.00800           0
     12219 MEMB     106      CHL1     C11      CRL2    -0.180000       12.0110           0
     12220 MEMB     106      CHL1     H11A     HGA2     0.900000E-01   1.00800           0
     12221 MEMB     106      CHL1     H11B     HGA2     0.900000E-01   1.00800           0
     12222 MEMB     106      CHL1     C9       CRL1    -0.900000E-01   12.0110           0
     12223 MEMB     106      CHL1     H9       HGA1     0.900000E-01   1.00800           0
     12224 MEMB     106      CHL1     C10      CRL1      0.00000       12.0110           0
     12225 MEMB     106      CHL1     C19      CTL3    -0.270000       12.0110           0
     12226 MEMB     106      CHL1     H19A     HAL3     0.900000E-01   1.00800           0
     12227 MEMB     106      CHL1     H19B     HAL3     0.900000E-01   1.00800           0
     12228 MEMB     106      CHL1     H19C     HAL3     0.900000E-01   1.00800           0
     12229 MEMB     106      CHL1     C1       CRL2    -0.180000       12.0110           0
     12230 MEMB     106      CHL1     H1A      HGA2     0.900000E-01   1.00800           0
     12231 MEMB     106      CHL1     H1B      HGA2     0.900000E-01   1.00800           0
     12232 MEMB     106      CHL1     C2       CRL2    -0.180000       12.0110           0
     12233 MEMB     106      CHL1     H2A      HGA2     0.900000E-01   1.00800           0
     12234 MEMB     106      CHL1     H2B      HGA2     0.900000E-01   1.00800           0
     12235 MEMB     106      CHL1     C20      CTL1    -0.900000E-01   12.0110           0
     12236 MEMB     106      CHL1     H20      HAL1     0.900000E-01   1.00800           0
     12237 MEMB     106      CHL1     C21      CTL3    -0.270000       12.0110           0
     12238 MEMB     106      CHL1     H21A     HAL3     0.900000E-01   1.00800           0
     12239 MEMB     106      CHL1     H21B     HAL3     0.900000E-01   1.00800           0
     12240 MEMB     106      CHL1     H21C     HAL3     0.900000E-01   1.00800           0
     12241 MEMB     106      CHL1     C22      CTL2    -0.180000       12.0110           0
     12242 MEMB     106      CHL1     H22A     HAL2     0.900000E-01   1.00800           0
     12243 MEMB     106      CHL1     H22B     HAL2     0.900000E-01   1.00800           0
     12244 MEMB     106      CHL1     C23      CTL2    -0.180000       12.0110           0
     12245 MEMB     106      CHL1     H23A     HAL2     0.900000E-01   1.00800           0
     12246 MEMB     106      CHL1     H23B     HAL2     0.900000E-01   1.00800           0
     12247 MEMB     106      CHL1     C24      CTL2    -0.180000       12.0110           0
     12248 MEMB     106      CHL1     H24A     HAL2     0.900000E-01   1.00800           0
     12249 MEMB     106      CHL1     H24B     HAL2     0.900000E-01   1.00800           0
     12250 MEMB     106      CHL1     C25      CTL1    -0.900000E-01   12.0110           0
     12251 MEMB     106      CHL1     H25      HAL1     0.900000E-01   1.00800           0
     12252 MEMB     106      CHL1     C26      CTL3    -0.270000       12.0110           0
     12253 MEMB     106      CHL1     H26A     HAL3     0.900000E-01   1.00800           0
     12254 MEMB     106      CHL1     H26B     HAL3     0.900000E-01   1.00800           0
     12255 MEMB     106      CHL1     H26C     HAL3     0.900000E-01   1.00800           0
     12256 MEMB     106      CHL1     C27      CTL3    -0.270000       12.0110           0
     12257 MEMB     106      CHL1     H27A     HAL3     0.900000E-01   1.00800           0
     12258 MEMB     106      CHL1     H27B     HAL3     0.900000E-01   1.00800           0
     12259 MEMB     106      CHL1     H27C     HAL3     0.900000E-01   1.00800           0
     12260 MEMB     107      SAPS     N        NH3L    -0.300000       14.0070           0
     12261 MEMB     107      SAPS     HN1      HCL      0.330000       1.00800           0
     12262 MEMB     107      SAPS     HN2      HCL      0.330000       1.00800           0
     12263 MEMB     107      SAPS     HN3      HCL      0.330000       1.00800           0
     12264 MEMB     107      SAPS     C12      CTL1     0.210000       12.0110           0
     12265 MEMB     107      SAPS     H12A     HBL      0.100000       1.00800           0
     12266 MEMB     107      SAPS     C13      CCL      0.340000       12.0110           0
     12267 MEMB     107      SAPS     O13A     OCL     -0.670000       15.9994           0
     12268 MEMB     107      SAPS     O13B     OCL     -0.670000       15.9994           0
     12269 MEMB     107      SAPS     C11      CTL2    -0.800000E-01   12.0110           0
     12270 MEMB     107      SAPS     H11A     HAL2     0.900000E-01   1.00800           0
     12271 MEMB     107      SAPS     H11B     HAL2     0.900000E-01   1.00800           0
     12272 MEMB     107      SAPS     P        PL        1.50000       30.9740           0
     12273 MEMB     107      SAPS     O13      O2L     -0.780000       15.9994           0
     12274 MEMB     107      SAPS     O14      O2L     -0.780000       15.9994           0
     12275 MEMB     107      SAPS     O12      OSLP    -0.570000       15.9994           0
     12276 MEMB     107      SAPS     O11      OSLP    -0.570000       15.9994           0
     12277 MEMB     107      SAPS     C1       CTL2    -0.800000E-01   12.0110           0
     12278 MEMB     107      SAPS     HA       HAL2     0.900000E-01   1.00800           0
     12279 MEMB     107      SAPS     HB       HAL2     0.900000E-01   1.00800           0
     12280 MEMB     107      SAPS     C2       CTL1     0.170000       12.0110           0
     12281 MEMB     107      SAPS     HS       HAL1     0.900000E-01   1.00800           0
     12282 MEMB     107      SAPS     O21      OSL     -0.490000       15.9994           0
     12283 MEMB     107      SAPS     C21      CL       0.900000       12.0110           0
     12284 MEMB     107      SAPS     O22      OBL     -0.630000       15.9994           0
     12285 MEMB     107      SAPS     C22      CTL2    -0.220000       12.0110           0
     12286 MEMB     107      SAPS     H2R      HAL2     0.900000E-01   1.00800           0
     12287 MEMB     107      SAPS     H2S      HAL2     0.900000E-01   1.00800           0
     12288 MEMB     107      SAPS     C3       CTL2     0.800000E-01   12.0110           0
     12289 MEMB     107      SAPS     HX       HAL2     0.900000E-01   1.00800           0
     12290 MEMB     107      SAPS     HY       HAL2     0.900000E-01   1.00800           0
     12291 MEMB     107      SAPS     O31      OSL     -0.490000       15.9994           0
     12292 MEMB     107      SAPS     C31      CL       0.900000       12.0110           0
     12293 MEMB     107      SAPS     O32      OBL     -0.630000       15.9994           0
     12294 MEMB     107      SAPS     C32      CTL2    -0.220000       12.0110           0
     12295 MEMB     107      SAPS     H2X      HAL2     0.900000E-01   1.00800           0
     12296 MEMB     107      SAPS     H2Y      HAL2     0.900000E-01   1.00800           0
     12297 MEMB     107      SAPS     C23      CTL2    -0.180000       12.0110           0
     12298 MEMB     107      SAPS     H3R      HAL2     0.900000E-01   1.00800           0
     12299 MEMB     107      SAPS     H3S      HAL2     0.900000E-01   1.00800           0
     12300 MEMB     107      SAPS     C24      CTL2    -0.180000       12.0110           0
     12301 MEMB     107      SAPS     H4R      HAL2     0.900000E-01   1.00800           0
     12302 MEMB     107      SAPS     H4S      HAL2     0.900000E-01   1.00800           0
     12303 MEMB     107      SAPS     C25      CEL1    -0.150000       12.0110           0
     12304 MEMB     107      SAPS     H5R      HEL1     0.150000       1.00800           0
     12305 MEMB     107      SAPS     C26      CEL1    -0.150000       12.0110           0
     12306 MEMB     107      SAPS     H6R      HEL1     0.150000       1.00800           0
     12307 MEMB     107      SAPS     C27      CTL2    -0.180000       12.0110           0
     12308 MEMB     107      SAPS     H7R      HAL2     0.900000E-01   1.00800           0
     12309 MEMB     107      SAPS     H7S      HAL2     0.900000E-01   1.00800           0
     12310 MEMB     107      SAPS     C28      CEL1    -0.150000       12.0110           0
     12311 MEMB     107      SAPS     H8R      HEL1     0.150000       1.00800           0
     12312 MEMB     107      SAPS     C29      CEL1    -0.150000       12.0110           0
     12313 MEMB     107      SAPS     H9R      HEL1     0.150000       1.00800           0
     12314 MEMB     107      SAPS     C210     CTL2    -0.180000       12.0110           0
     12315 MEMB     107      SAPS     H10R     HAL2     0.900000E-01   1.00800           0
     12316 MEMB     107      SAPS     H10S     HAL2     0.900000E-01   1.00800           0
     12317 MEMB     107      SAPS     C211     CEL1    -0.150000       12.0110           0
     12318 MEMB     107      SAPS     H11R     HEL1     0.150000       1.00800           0
     12319 MEMB     107      SAPS     C212     CEL1    -0.150000       12.0110           0
     12320 MEMB     107      SAPS     H12R     HEL1     0.150000       1.00800           0
     12321 MEMB     107      SAPS     C213     CTL2    -0.180000       12.0110           0
     12322 MEMB     107      SAPS     H13R     HAL2     0.900000E-01   1.00800           0
     12323 MEMB     107      SAPS     H13S     HAL2     0.900000E-01   1.00800           0
     12324 MEMB     107      SAPS     C214     CEL1    -0.150000       12.0110           0
     12325 MEMB     107      SAPS     H14R     HEL1     0.150000       1.00800           0
     12326 MEMB     107      SAPS     C215     CEL1    -0.150000       12.0110           0
     12327 MEMB     107      SAPS     H15R     HEL1     0.150000       1.00800           0
     12328 MEMB     107      SAPS     C216     CTL2    -0.180000       12.0110           0
     12329 MEMB     107      SAPS     H16R     HAL2     0.900000E-01   1.00800           0
     12330 MEMB     107      SAPS     H16S     HAL2     0.900000E-01   1.00800           0
     12331 MEMB     107      SAPS     C217     CTL2    -0.180000       12.0110           0
     12332 MEMB     107      SAPS     H17R     HAL2     0.900000E-01   1.00800           0
     12333 MEMB     107      SAPS     H17S     HAL2     0.900000E-01   1.00800           0
     12334 MEMB     107      SAPS     C218     CTL2    -0.180000       12.0110           0
     12335 MEMB     107      SAPS     H18R     HAL2     0.900000E-01   1.00800           0
     12336 MEMB     107      SAPS     H18S     HAL2     0.900000E-01   1.00800           0
     12337 MEMB     107      SAPS     C219     CTL2    -0.180000       12.0110           0
     12338 MEMB     107      SAPS     H19R     HAL2     0.900000E-01   1.00800           0
     12339 MEMB     107      SAPS     H19S     HAL2     0.900000E-01   1.00800           0
     12340 MEMB     107      SAPS     C220     CTL3    -0.270000       12.0110           0
     12341 MEMB     107      SAPS     H20R     HAL3     0.900000E-01   1.00800           0
     12342 MEMB     107      SAPS     H20S     HAL3     0.900000E-01   1.00800           0
     12343 MEMB     107      SAPS     H20T     HAL3     0.900000E-01   1.00800           0
     12344 MEMB     107      SAPS     C33      CTL2    -0.180000       12.0110           0
     12345 MEMB     107      SAPS     H3X      HAL2     0.900000E-01   1.00800           0
     12346 MEMB     107      SAPS     H3Y      HAL2     0.900000E-01   1.00800           0
     12347 MEMB     107      SAPS     C34      CTL2    -0.180000       12.0110           0
     12348 MEMB     107      SAPS     H4X      HAL2     0.900000E-01   1.00800           0
     12349 MEMB     107      SAPS     H4Y      HAL2     0.900000E-01   1.00800           0
     12350 MEMB     107      SAPS     C35      CTL2    -0.180000       12.0110           0
     12351 MEMB     107      SAPS     H5X      HAL2     0.900000E-01   1.00800           0
     12352 MEMB     107      SAPS     H5Y      HAL2     0.900000E-01   1.00800           0
     12353 MEMB     107      SAPS     C36      CTL2    -0.180000       12.0110           0
     12354 MEMB     107      SAPS     H6X      HAL2     0.900000E-01   1.00800           0
     12355 MEMB     107      SAPS     H6Y      HAL2     0.900000E-01   1.00800           0
     12356 MEMB     107      SAPS     C37      CTL2    -0.180000       12.0110           0
     12357 MEMB     107      SAPS     H7X      HAL2     0.900000E-01   1.00800           0
     12358 MEMB     107      SAPS     H7Y      HAL2     0.900000E-01   1.00800           0
     12359 MEMB     107      SAPS     C38      CTL2    -0.180000       12.0110           0
     12360 MEMB     107      SAPS     H8X      HAL2     0.900000E-01   1.00800           0
     12361 MEMB     107      SAPS     H8Y      HAL2     0.900000E-01   1.00800           0
     12362 MEMB     107      SAPS     C39      CTL2    -0.180000       12.0110           0
     12363 MEMB     107      SAPS     H9X      HAL2     0.900000E-01   1.00800           0
     12364 MEMB     107      SAPS     H9Y      HAL2     0.900000E-01   1.00800           0
     12365 MEMB     107      SAPS     C310     CTL2    -0.180000       12.0110           0
     12366 MEMB     107      SAPS     H10X     HAL2     0.900000E-01   1.00800           0
     12367 MEMB     107      SAPS     H10Y     HAL2     0.900000E-01   1.00800           0
     12368 MEMB     107      SAPS     C311     CTL2    -0.180000       12.0110           0
     12369 MEMB     107      SAPS     H11X     HAL2     0.900000E-01   1.00800           0
     12370 MEMB     107      SAPS     H11Y     HAL2     0.900000E-01   1.00800           0
     12371 MEMB     107      SAPS     C312     CTL2    -0.180000       12.0110           0
     12372 MEMB     107      SAPS     H12X     HAL2     0.900000E-01   1.00800           0
     12373 MEMB     107      SAPS     H12Y     HAL2     0.900000E-01   1.00800           0
     12374 MEMB     107      SAPS     C313     CTL2    -0.180000       12.0110           0
     12375 MEMB     107      SAPS     H13X     HAL2     0.900000E-01   1.00800           0
     12376 MEMB     107      SAPS     H13Y     HAL2     0.900000E-01   1.00800           0
     12377 MEMB     107      SAPS     C314     CTL2    -0.180000       12.0110           0
     12378 MEMB     107      SAPS     H14X     HAL2     0.900000E-01   1.00800           0
     12379 MEMB     107      SAPS     H14Y     HAL2     0.900000E-01   1.00800           0
     12380 MEMB     107      SAPS     C315     CTL2    -0.180000       12.0110           0
     12381 MEMB     107      SAPS     H15X     HAL2     0.900000E-01   1.00800           0
     12382 MEMB     107      SAPS     H15Y     HAL2     0.900000E-01   1.00800           0
     12383 MEMB     107      SAPS     C316     CTL2    -0.180000       12.0110           0
     12384 MEMB     107      SAPS     H16X     HAL2     0.900000E-01   1.00800           0
     12385 MEMB     107      SAPS     H16Y     HAL2     0.900000E-01   1.00800           0
     12386 MEMB     107      SAPS     C317     CTL2    -0.180000       12.0110           0
     12387 MEMB     107      SAPS     H17X     HAL2     0.900000E-01   1.00800           0
     12388 MEMB     107      SAPS     H17Y     HAL2     0.900000E-01   1.00800           0
     12389 MEMB     107      SAPS     C318     CTL3    -0.270000       12.0110           0
     12390 MEMB     107      SAPS     H18X     HAL3     0.900000E-01   1.00800           0
     12391 MEMB     107      SAPS     H18Y     HAL3     0.900000E-01   1.00800           0
     12392 MEMB     107      SAPS     H18Z     HAL3     0.900000E-01   1.00800           0
     12393 MEMB     108      POPC     N        NTL     -0.600000       14.0070           0
     12394 MEMB     108      POPC     C12      CTL2    -0.100000       12.0110           0
     12395 MEMB     108      POPC     H12A     HL       0.250000       1.00800           0
     12396 MEMB     108      POPC     H12B     HL       0.250000       1.00800           0
     12397 MEMB     108      POPC     C13      CTL5    -0.350000       12.0110           0
     12398 MEMB     108      POPC     H13A     HL       0.250000       1.00800           0
     12399 MEMB     108      POPC     H13B     HL       0.250000       1.00800           0
     12400 MEMB     108      POPC     H13C     HL       0.250000       1.00800           0
     12401 MEMB     108      POPC     C14      CTL5    -0.350000       12.0110           0
     12402 MEMB     108      POPC     H14A     HL       0.250000       1.00800           0
     12403 MEMB     108      POPC     H14B     HL       0.250000       1.00800           0
     12404 MEMB     108      POPC     H14C     HL       0.250000       1.00800           0
     12405 MEMB     108      POPC     C15      CTL5    -0.350000       12.0110           0
     12406 MEMB     108      POPC     H15A     HL       0.250000       1.00800           0
     12407 MEMB     108      POPC     H15B     HL       0.250000       1.00800           0
     12408 MEMB     108      POPC     H15C     HL       0.250000       1.00800           0
     12409 MEMB     108      POPC     C11      CTL2    -0.800000E-01   12.0110           0
     12410 MEMB     108      POPC     H11A     HAL2     0.900000E-01   1.00800           0
     12411 MEMB     108      POPC     H11B     HAL2     0.900000E-01   1.00800           0
     12412 MEMB     108      POPC     P        PL        1.50000       30.9740           0
     12413 MEMB     108      POPC     O13      O2L     -0.780000       15.9994           0
     12414 MEMB     108      POPC     O14      O2L     -0.780000       15.9994           0
     12415 MEMB     108      POPC     O12      OSLP    -0.570000       15.9994           0
     12416 MEMB     108      POPC     O11      OSLP    -0.570000       15.9994           0
     12417 MEMB     108      POPC     C1       CTL2    -0.800000E-01   12.0110           0
     12418 MEMB     108      POPC     HA       HAL2     0.900000E-01   1.00800           0
     12419 MEMB     108      POPC     HB       HAL2     0.900000E-01   1.00800           0
     12420 MEMB     108      POPC     C2       CTL1     0.170000       12.0110           0
     12421 MEMB     108      POPC     HS       HAL1     0.900000E-01   1.00800           0
     12422 MEMB     108      POPC     O21      OSL     -0.490000       15.9994           0
     12423 MEMB     108      POPC     C21      CL       0.900000       12.0110           0
     12424 MEMB     108      POPC     O22      OBL     -0.630000       15.9994           0
     12425 MEMB     108      POPC     C22      CTL2    -0.220000       12.0110           0
     12426 MEMB     108      POPC     H2R      HAL2     0.900000E-01   1.00800           0
     12427 MEMB     108      POPC     H2S      HAL2     0.900000E-01   1.00800           0
     12428 MEMB     108      POPC     C3       CTL2     0.800000E-01   12.0110           0
     12429 MEMB     108      POPC     HX       HAL2     0.900000E-01   1.00800           0
     12430 MEMB     108      POPC     HY       HAL2     0.900000E-01   1.00800           0
     12431 MEMB     108      POPC     O31      OSL     -0.490000       15.9994           0
     12432 MEMB     108      POPC     C31      CL       0.900000       12.0110           0
     12433 MEMB     108      POPC     O32      OBL     -0.630000       15.9994           0
     12434 MEMB     108      POPC     C32      CTL2    -0.220000       12.0110           0
     12435 MEMB     108      POPC     H2X      HAL2     0.900000E-01   1.00800           0
     12436 MEMB     108      POPC     H2Y      HAL2     0.900000E-01   1.00800           0
     12437 MEMB     108      POPC     C23      CTL2    -0.180000       12.0110           0
     12438 MEMB     108      POPC     H3R      HAL2     0.900000E-01   1.00800           0
     12439 MEMB     108      POPC     H3S      HAL2     0.900000E-01   1.00800           0
     12440 MEMB     108      POPC     C24      CTL2    -0.180000       12.0110           0
     12441 MEMB     108      POPC     H4R      HAL2     0.900000E-01   1.00800           0
     12442 MEMB     108      POPC     H4S      HAL2     0.900000E-01   1.00800           0
     12443 MEMB     108      POPC     C25      CTL2    -0.180000       12.0110           0
     12444 MEMB     108      POPC     H5R      HAL2     0.900000E-01   1.00800           0
     12445 MEMB     108      POPC     H5S      HAL2     0.900000E-01   1.00800           0
     12446 MEMB     108      POPC     C26      CTL2    -0.180000       12.0110           0
     12447 MEMB     108      POPC     H6R      HAL2     0.900000E-01   1.00800           0
     12448 MEMB     108      POPC     H6S      HAL2     0.900000E-01   1.00800           0
     12449 MEMB     108      POPC     C27      CTL2    -0.180000       12.0110           0
     12450 MEMB     108      POPC     H7R      HAL2     0.900000E-01   1.00800           0
     12451 MEMB     108      POPC     H7S      HAL2     0.900000E-01   1.00800           0
     12452 MEMB     108      POPC     C28      CTL2    -0.180000       12.0110           0
     12453 MEMB     108      POPC     H8R      HAL2     0.900000E-01   1.00800           0
     12454 MEMB     108      POPC     H8S      HAL2     0.900000E-01   1.00800           0
     12455 MEMB     108      POPC     C29      CEL1    -0.150000       12.0110           0
     12456 MEMB     108      POPC     H91      HEL1     0.150000       1.00800           0
     12457 MEMB     108      POPC     C210     CEL1    -0.150000       12.0110           0
     12458 MEMB     108      POPC     H101     HEL1     0.150000       1.00800           0
     12459 MEMB     108      POPC     C211     CTL2    -0.180000       12.0110           0
     12460 MEMB     108      POPC     H11R     HAL2     0.900000E-01   1.00800           0
     12461 MEMB     108      POPC     H11S     HAL2     0.900000E-01   1.00800           0
     12462 MEMB     108      POPC     C212     CTL2    -0.180000       12.0110           0
     12463 MEMB     108      POPC     H12R     HAL2     0.900000E-01   1.00800           0
     12464 MEMB     108      POPC     H12S     HAL2     0.900000E-01   1.00800           0
     12465 MEMB     108      POPC     C213     CTL2    -0.180000       12.0110           0
     12466 MEMB     108      POPC     H13R     HAL2     0.900000E-01   1.00800           0
     12467 MEMB     108      POPC     H13S     HAL2     0.900000E-01   1.00800           0
     12468 MEMB     108      POPC     C214     CTL2    -0.180000       12.0110           0
     12469 MEMB     108      POPC     H14R     HAL2     0.900000E-01   1.00800           0
     12470 MEMB     108      POPC     H14S     HAL2     0.900000E-01   1.00800           0
     12471 MEMB     108      POPC     C215     CTL2    -0.180000       12.0110           0
     12472 MEMB     108      POPC     H15R     HAL2     0.900000E-01   1.00800           0
     12473 MEMB     108      POPC     H15S     HAL2     0.900000E-01   1.00800           0
     12474 MEMB     108      POPC     C216     CTL2    -0.180000       12.0110           0
     12475 MEMB     108      POPC     H16R     HAL2     0.900000E-01   1.00800           0
     12476 MEMB     108      POPC     H16S     HAL2     0.900000E-01   1.00800           0
     12477 MEMB     108      POPC     C217     CTL2    -0.180000       12.0110           0
     12478 MEMB     108      POPC     H17R     HAL2     0.900000E-01   1.00800           0
     12479 MEMB     108      POPC     H17S     HAL2     0.900000E-01   1.00800           0
     12480 MEMB     108      POPC     C218     CTL3    -0.270000       12.0110           0
     12481 MEMB     108      POPC     H18R     HAL3     0.900000E-01   1.00800           0
     12482 MEMB     108      POPC     H18S     HAL3     0.900000E-01   1.00800           0
     12483 MEMB     108      POPC     H18T     HAL3     0.900000E-01   1.00800           0
     12484 MEMB     108      POPC     C33      CTL2    -0.180000       12.0110           0
     12485 MEMB     108      POPC     H3X      HAL2     0.900000E-01   1.00800           0
     12486 MEMB     108      POPC     H3Y      HAL2     0.900000E-01   1.00800           0
     12487 MEMB     108      POPC     C34      CTL2    -0.180000       12.0110           0
     12488 MEMB     108      POPC     H4X      HAL2     0.900000E-01   1.00800           0
     12489 MEMB     108      POPC     H4Y      HAL2     0.900000E-01   1.00800           0
     12490 MEMB     108      POPC     C35      CTL2    -0.180000       12.0110           0
     12491 MEMB     108      POPC     H5X      HAL2     0.900000E-01   1.00800           0
     12492 MEMB     108      POPC     H5Y      HAL2     0.900000E-01   1.00800           0
     12493 MEMB     108      POPC     C36      CTL2    -0.180000       12.0110           0
     12494 MEMB     108      POPC     H6X      HAL2     0.900000E-01   1.00800           0
     12495 MEMB     108      POPC     H6Y      HAL2     0.900000E-01   1.00800           0
     12496 MEMB     108      POPC     C37      CTL2    -0.180000       12.0110           0
     12497 MEMB     108      POPC     H7X      HAL2     0.900000E-01   1.00800           0
     12498 MEMB     108      POPC     H7Y      HAL2     0.900000E-01   1.00800           0
     12499 MEMB     108      POPC     C38      CTL2    -0.180000       12.0110           0
     12500 MEMB     108      POPC     H8X      HAL2     0.900000E-01   1.00800           0
     12501 MEMB     108      POPC     H8Y      HAL2     0.900000E-01   1.00800           0
     12502 MEMB     108      POPC     C39      CTL2    -0.180000       12.0110           0
     12503 MEMB     108      POPC     H9X      HAL2     0.900000E-01   1.00800           0
     12504 MEMB     108      POPC     H9Y      HAL2     0.900000E-01   1.00800           0
     12505 MEMB     108      POPC     C310     CTL2    -0.180000       12.0110           0
     12506 MEMB     108      POPC     H10X     HAL2     0.900000E-01   1.00800           0
     12507 MEMB     108      POPC     H10Y     HAL2     0.900000E-01   1.00800           0
     12508 MEMB     108      POPC     C311     CTL2    -0.180000       12.0110           0
     12509 MEMB     108      POPC     H11X     HAL2     0.900000E-01   1.00800           0
     12510 MEMB     108      POPC     H11Y     HAL2     0.900000E-01   1.00800           0
     12511 MEMB     108      POPC     C312     CTL2    -0.180000       12.0110           0
     12512 MEMB     108      POPC     H12X     HAL2     0.900000E-01   1.00800           0
     12513 MEMB     108      POPC     H12Y     HAL2     0.900000E-01   1.00800           0
     12514 MEMB     108      POPC     C313     CTL2    -0.180000       12.0110           0
     12515 MEMB     108      POPC     H13X     HAL2     0.900000E-01   1.00800           0
     12516 MEMB     108      POPC     H13Y     HAL2     0.900000E-01   1.00800           0
     12517 MEMB     108      POPC     C314     CTL2    -0.180000       12.0110           0
     12518 MEMB     108      POPC     H14X     HAL2     0.900000E-01   1.00800           0
     12519 MEMB     108      POPC     H14Y     HAL2     0.900000E-01   1.00800           0
     12520 MEMB     108      POPC     C315     CTL2    -0.180000       12.0110           0
     12521 MEMB     108      POPC     H15X     HAL2     0.900000E-01   1.00800           0
     12522 MEMB     108      POPC     H15Y     HAL2     0.900000E-01   1.00800           0
     12523 MEMB     108      POPC     C316     CTL3    -0.270000       12.0110           0
     12524 MEMB     108      POPC     H16X     HAL3     0.900000E-01   1.00800           0
     12525 MEMB     108      POPC     H16Y     HAL3     0.900000E-01   1.00800           0
     12526 MEMB     108      POPC     H16Z     HAL3     0.900000E-01   1.00800           0
     12527 MEMB     109      CHL1     C3       CRL1     0.140000       12.0110           0
     12528 MEMB     109      CHL1     H3       HGA1     0.900000E-01   1.00800           0
     12529 MEMB     109      CHL1     O3       OHL     -0.660000       15.9994           0
     12530 MEMB     109      CHL1     H3'      HOL      0.430000       1.00800           0
     12531 MEMB     109      CHL1     C4       CRL2    -0.180000       12.0110           0
     12532 MEMB     109      CHL1     H4A      HGA2     0.900000E-01   1.00800           0
     12533 MEMB     109      CHL1     H4B      HGA2     0.900000E-01   1.00800           0
     12534 MEMB     109      CHL1     C5       CEL1      0.00000       12.0110           0
     12535 MEMB     109      CHL1     C6       CEL1    -0.150000       12.0110           0
     12536 MEMB     109      CHL1     H6       HEL1     0.150000       1.00800           0
     12537 MEMB     109      CHL1     C7       CRL2    -0.180000       12.0110           0
     12538 MEMB     109      CHL1     H7A      HGA2     0.900000E-01   1.00800           0
     12539 MEMB     109      CHL1     H7B      HGA2     0.900000E-01   1.00800           0
     12540 MEMB     109      CHL1     C8       CRL1    -0.900000E-01   12.0110           0
     12541 MEMB     109      CHL1     H8       HGA1     0.900000E-01   1.00800           0
     12542 MEMB     109      CHL1     C14      CRL1    -0.900000E-01   12.0110           0
     12543 MEMB     109      CHL1     H14      HGA1     0.900000E-01   1.00800           0
     12544 MEMB     109      CHL1     C15      CRL2    -0.180000       12.0110           0
     12545 MEMB     109      CHL1     H15A     HGA2     0.900000E-01   1.00800           0
     12546 MEMB     109      CHL1     H15B     HGA2     0.900000E-01   1.00800           0
     12547 MEMB     109      CHL1     C16      CRL2    -0.180000       12.0110           0
     12548 MEMB     109      CHL1     H16A     HGA2     0.900000E-01   1.00800           0
     12549 MEMB     109      CHL1     H16B     HGA2     0.900000E-01   1.00800           0
     12550 MEMB     109      CHL1     C17      CRL1    -0.900000E-01   12.0110           0
     12551 MEMB     109      CHL1     H17      HGA1     0.900000E-01   1.00800           0
     12552 MEMB     109      CHL1     C13      CRL1      0.00000       12.0110           0
     12553 MEMB     109      CHL1     C18      CTL3    -0.270000       12.0110           0
     12554 MEMB     109      CHL1     H18A     HAL3     0.900000E-01   1.00800           0
     12555 MEMB     109      CHL1     H18B     HAL3     0.900000E-01   1.00800           0
     12556 MEMB     109      CHL1     H18C     HAL3     0.900000E-01   1.00800           0
     12557 MEMB     109      CHL1     C12      CRL2    -0.180000       12.0110           0
     12558 MEMB     109      CHL1     H12A     HGA2     0.900000E-01   1.00800           0
     12559 MEMB     109      CHL1     H12B     HGA2     0.900000E-01   1.00800           0
     12560 MEMB     109      CHL1     C11      CRL2    -0.180000       12.0110           0
     12561 MEMB     109      CHL1     H11A     HGA2     0.900000E-01   1.00800           0
     12562 MEMB     109      CHL1     H11B     HGA2     0.900000E-01   1.00800           0
     12563 MEMB     109      CHL1     C9       CRL1    -0.900000E-01   12.0110           0
     12564 MEMB     109      CHL1     H9       HGA1     0.900000E-01   1.00800           0
     12565 MEMB     109      CHL1     C10      CRL1      0.00000       12.0110           0
     12566 MEMB     109      CHL1     C19      CTL3    -0.270000       12.0110           0
     12567 MEMB     109      CHL1     H19A     HAL3     0.900000E-01   1.00800           0
     12568 MEMB     109      CHL1     H19B     HAL3     0.900000E-01   1.00800           0
     12569 MEMB     109      CHL1     H19C     HAL3     0.900000E-01   1.00800           0
     12570 MEMB     109      CHL1     C1       CRL2    -0.180000       12.0110           0
     12571 MEMB     109      CHL1     H1A      HGA2     0.900000E-01   1.00800           0
     12572 MEMB     109      CHL1     H1B      HGA2     0.900000E-01   1.00800           0
     12573 MEMB     109      CHL1     C2       CRL2    -0.180000       12.0110           0
     12574 MEMB     109      CHL1     H2A      HGA2     0.900000E-01   1.00800           0
     12575 MEMB     109      CHL1     H2B      HGA2     0.900000E-01   1.00800           0
     12576 MEMB     109      CHL1     C20      CTL1    -0.900000E-01   12.0110           0
     12577 MEMB     109      CHL1     H20      HAL1     0.900000E-01   1.00800           0
     12578 MEMB     109      CHL1     C21      CTL3    -0.270000       12.0110           0
     12579 MEMB     109      CHL1     H21A     HAL3     0.900000E-01   1.00800           0
     12580 MEMB     109      CHL1     H21B     HAL3     0.900000E-01   1.00800           0
     12581 MEMB     109      CHL1     H21C     HAL3     0.900000E-01   1.00800           0
     12582 MEMB     109      CHL1     C22      CTL2    -0.180000       12.0110           0
     12583 MEMB     109      CHL1     H22A     HAL2     0.900000E-01   1.00800           0
     12584 MEMB     109      CHL1     H22B     HAL2     0.900000E-01   1.00800           0
     12585 MEMB     109      CHL1     C23      CTL2    -0.180000       12.0110           0
     12586 MEMB     109      CHL1     H23A     HAL2     0.900000E-01   1.00800           0
     12587 MEMB     109      CHL1     H23B     HAL2     0.900000E-01   1.00800           0
     12588 MEMB     109      CHL1     C24      CTL2    -0.180000       12.0110           0
     12589 MEMB     109      CHL1     H24A     HAL2     0.900000E-01   1.00800           0
     12590 MEMB     109      CHL1     H24B     HAL2     0.900000E-01   1.00800           0
     12591 MEMB     109      CHL1     C25      CTL1    -0.900000E-01   12.0110           0
     12592 MEMB     109      CHL1     H25      HAL1     0.900000E-01   1.00800           0
     12593 MEMB     109      CHL1     C26      CTL3    -0.270000       12.0110           0
     12594 MEMB     109      CHL1     H26A     HAL3     0.900000E-01   1.00800           0
     12595 MEMB     109      CHL1     H26B     HAL3     0.900000E-01   1.00800           0
     12596 MEMB     109      CHL1     H26C     HAL3     0.900000E-01   1.00800           0
     12597 MEMB     109      CHL1     C27      CTL3    -0.270000       12.0110           0
     12598 MEMB     109      CHL1     H27A     HAL3     0.900000E-01   1.00800           0
     12599 MEMB     109      CHL1     H27B     HAL3     0.900000E-01   1.00800           0
     12600 MEMB     109      CHL1     H27C     HAL3     0.900000E-01   1.00800           0
     12601 MEMB     110      SAPE     N        NH3L    -0.300000       14.0070           0
     12602 MEMB     110      SAPE     HN1      HCL      0.330000       1.00800           0
     12603 MEMB     110      SAPE     HN2      HCL      0.330000       1.00800           0
     12604 MEMB     110      SAPE     HN3      HCL      0.330000       1.00800           0
     12605 MEMB     110      SAPE     C12      CTL2     0.130000       12.0110           0
     12606 MEMB     110      SAPE     H12A     HAL2     0.900000E-01   1.00800           0
     12607 MEMB     110      SAPE     H12B     HAL2     0.900000E-01   1.00800           0
     12608 MEMB     110      SAPE     C11      CTL2    -0.800000E-01   12.0110           0
     12609 MEMB     110      SAPE     H11A     HAL2     0.900000E-01   1.00800           0
     12610 MEMB     110      SAPE     H11B     HAL2     0.900000E-01   1.00800           0
     12611 MEMB     110      SAPE     P        PL        1.50000       30.9740           0
     12612 MEMB     110      SAPE     O13      O2L     -0.780000       15.9994           0
     12613 MEMB     110      SAPE     O14      O2L     -0.780000       15.9994           0
     12614 MEMB     110      SAPE     O12      OSLP    -0.570000       15.9994           0
     12615 MEMB     110      SAPE     O11      OSLP    -0.570000       15.9994           0
     12616 MEMB     110      SAPE     C1       CTL2    -0.800000E-01   12.0110           0
     12617 MEMB     110      SAPE     HA       HAL2     0.900000E-01   1.00800           0
     12618 MEMB     110      SAPE     HB       HAL2     0.900000E-01   1.00800           0
     12619 MEMB     110      SAPE     C2       CTL1     0.170000       12.0110           0
     12620 MEMB     110      SAPE     HS       HAL1     0.900000E-01   1.00800           0
     12621 MEMB     110      SAPE     O21      OSL     -0.490000       15.9994           0
     12622 MEMB     110      SAPE     C21      CL       0.900000       12.0110           0
     12623 MEMB     110      SAPE     O22      OBL     -0.630000       15.9994           0
     12624 MEMB     110      SAPE     C22      CTL2    -0.220000       12.0110           0
     12625 MEMB     110      SAPE     H2R      HAL2     0.900000E-01   1.00800           0
     12626 MEMB     110      SAPE     H2S      HAL2     0.900000E-01   1.00800           0
     12627 MEMB     110      SAPE     C3       CTL2     0.800000E-01   12.0110           0
     12628 MEMB     110      SAPE     HX       HAL2     0.900000E-01   1.00800           0
     12629 MEMB     110      SAPE     HY       HAL2     0.900000E-01   1.00800           0
     12630 MEMB     110      SAPE     O31      OSL     -0.490000       15.9994           0
     12631 MEMB     110      SAPE     C31      CL       0.900000       12.0110           0
     12632 MEMB     110      SAPE     O32      OBL     -0.630000       15.9994           0
     12633 MEMB     110      SAPE     C32      CTL2    -0.220000       12.0110           0
     12634 MEMB     110      SAPE     H2X      HAL2     0.900000E-01   1.00800           0
     12635 MEMB     110      SAPE     H2Y      HAL2     0.900000E-01   1.00800           0
     12636 MEMB     110      SAPE     C23      CTL2    -0.180000       12.0110           0
     12637 MEMB     110      SAPE     H3R      HAL2     0.900000E-01   1.00800           0
     12638 MEMB     110      SAPE     H3S      HAL2     0.900000E-01   1.00800           0
     12639 MEMB     110      SAPE     C24      CTL2    -0.180000       12.0110           0
     12640 MEMB     110      SAPE     H4R      HAL2     0.900000E-01   1.00800           0
     12641 MEMB     110      SAPE     H4S      HAL2     0.900000E-01   1.00800           0
     12642 MEMB     110      SAPE     C25      CEL1    -0.150000       12.0110           0
     12643 MEMB     110      SAPE     H5R      HEL1     0.150000       1.00800           0
     12644 MEMB     110      SAPE     C26      CEL1    -0.150000       12.0110           0
     12645 MEMB     110      SAPE     H6R      HEL1     0.150000       1.00800           0
     12646 MEMB     110      SAPE     C27      CTL2    -0.180000       12.0110           0
     12647 MEMB     110      SAPE     H7R      HAL2     0.900000E-01   1.00800           0
     12648 MEMB     110      SAPE     H7S      HAL2     0.900000E-01   1.00800           0
     12649 MEMB     110      SAPE     C28      CEL1    -0.150000       12.0110           0
     12650 MEMB     110      SAPE     H8R      HEL1     0.150000       1.00800           0
     12651 MEMB     110      SAPE     C29      CEL1    -0.150000       12.0110           0
     12652 MEMB     110      SAPE     H9R      HEL1     0.150000       1.00800           0
     12653 MEMB     110      SAPE     C210     CTL2    -0.180000       12.0110           0
     12654 MEMB     110      SAPE     H10R     HAL2     0.900000E-01   1.00800           0
     12655 MEMB     110      SAPE     H10S     HAL2     0.900000E-01   1.00800           0
     12656 MEMB     110      SAPE     C211     CEL1    -0.150000       12.0110           0
     12657 MEMB     110      SAPE     H11R     HEL1     0.150000       1.00800           0
     12658 MEMB     110      SAPE     C212     CEL1    -0.150000       12.0110           0
     12659 MEMB     110      SAPE     H12R     HEL1     0.150000       1.00800           0
     12660 MEMB     110      SAPE     C213     CTL2    -0.180000       12.0110           0
     12661 MEMB     110      SAPE     H13R     HAL2     0.900000E-01   1.00800           0
     12662 MEMB     110      SAPE     H13S     HAL2     0.900000E-01   1.00800           0
     12663 MEMB     110      SAPE     C214     CEL1    -0.150000       12.0110           0
     12664 MEMB     110      SAPE     H14R     HEL1     0.150000       1.00800           0
     12665 MEMB     110      SAPE     C215     CEL1    -0.150000       12.0110           0
     12666 MEMB     110      SAPE     H15R     HEL1     0.150000       1.00800           0
     12667 MEMB     110      SAPE     C216     CTL2    -0.180000       12.0110           0
     12668 MEMB     110      SAPE     H16R     HAL2     0.900000E-01   1.00800           0
     12669 MEMB     110      SAPE     H16S     HAL2     0.900000E-01   1.00800           0
     12670 MEMB     110      SAPE     C217     CTL2    -0.180000       12.0110           0
     12671 MEMB     110      SAPE     H17R     HAL2     0.900000E-01   1.00800           0
     12672 MEMB     110      SAPE     H17S     HAL2     0.900000E-01   1.00800           0
     12673 MEMB     110      SAPE     C218     CTL2    -0.180000       12.0110           0
     12674 MEMB     110      SAPE     H18R     HAL2     0.900000E-01   1.00800           0
     12675 MEMB     110      SAPE     H18S     HAL2     0.900000E-01   1.00800           0
     12676 MEMB     110      SAPE     C219     CTL2    -0.180000       12.0110           0
     12677 MEMB     110      SAPE     H19R     HAL2     0.900000E-01   1.00800           0
     12678 MEMB     110      SAPE     H19S     HAL2     0.900000E-01   1.00800           0
     12679 MEMB     110      SAPE     C220     CTL3    -0.270000       12.0110           0
     12680 MEMB     110      SAPE     H20R     HAL3     0.900000E-01   1.00800           0
     12681 MEMB     110      SAPE     H20S     HAL3     0.900000E-01   1.00800           0
     12682 MEMB     110      SAPE     H20T     HAL3     0.900000E-01   1.00800           0
     12683 MEMB     110      SAPE     C33      CTL2    -0.180000       12.0110           0
     12684 MEMB     110      SAPE     H3X      HAL2     0.900000E-01   1.00800           0
     12685 MEMB     110      SAPE     H3Y      HAL2     0.900000E-01   1.00800           0
     12686 MEMB     110      SAPE     C34      CTL2    -0.180000       12.0110           0
     12687 MEMB     110      SAPE     H4X      HAL2     0.900000E-01   1.00800           0
     12688 MEMB     110      SAPE     H4Y      HAL2     0.900000E-01   1.00800           0
     12689 MEMB     110      SAPE     C35      CTL2    -0.180000       12.0110           0
     12690 MEMB     110      SAPE     H5X      HAL2     0.900000E-01   1.00800           0
     12691 MEMB     110      SAPE     H5Y      HAL2     0.900000E-01   1.00800           0
     12692 MEMB     110      SAPE     C36      CTL2    -0.180000       12.0110           0
     12693 MEMB     110      SAPE     H6X      HAL2     0.900000E-01   1.00800           0
     12694 MEMB     110      SAPE     H6Y      HAL2     0.900000E-01   1.00800           0
     12695 MEMB     110      SAPE     C37      CTL2    -0.180000       12.0110           0
     12696 MEMB     110      SAPE     H7X      HAL2     0.900000E-01   1.00800           0
     12697 MEMB     110      SAPE     H7Y      HAL2     0.900000E-01   1.00800           0
     12698 MEMB     110      SAPE     C38      CTL2    -0.180000       12.0110           0
     12699 MEMB     110      SAPE     H8X      HAL2     0.900000E-01   1.00800           0
     12700 MEMB     110      SAPE     H8Y      HAL2     0.900000E-01   1.00800           0
     12701 MEMB     110      SAPE     C39      CTL2    -0.180000       12.0110           0
     12702 MEMB     110      SAPE     H9X      HAL2     0.900000E-01   1.00800           0
     12703 MEMB     110      SAPE     H9Y      HAL2     0.900000E-01   1.00800           0
     12704 MEMB     110      SAPE     C310     CTL2    -0.180000       12.0110           0
     12705 MEMB     110      SAPE     H10X     HAL2     0.900000E-01   1.00800           0
     12706 MEMB     110      SAPE     H10Y     HAL2     0.900000E-01   1.00800           0
     12707 MEMB     110      SAPE     C311     CTL2    -0.180000       12.0110           0
     12708 MEMB     110      SAPE     H11X     HAL2     0.900000E-01   1.00800           0
     12709 MEMB     110      SAPE     H11Y     HAL2     0.900000E-01   1.00800           0
     12710 MEMB     110      SAPE     C312     CTL2    -0.180000       12.0110           0
     12711 MEMB     110      SAPE     H12X     HAL2     0.900000E-01   1.00800           0
     12712 MEMB     110      SAPE     H12Y     HAL2     0.900000E-01   1.00800           0
     12713 MEMB     110      SAPE     C313     CTL2    -0.180000       12.0110           0
     12714 MEMB     110      SAPE     H13X     HAL2     0.900000E-01   1.00800           0
     12715 MEMB     110      SAPE     H13Y     HAL2     0.900000E-01   1.00800           0
     12716 MEMB     110      SAPE     C314     CTL2    -0.180000       12.0110           0
     12717 MEMB     110      SAPE     H14X     HAL2     0.900000E-01   1.00800           0
     12718 MEMB     110      SAPE     H14Y     HAL2     0.900000E-01   1.00800           0
     12719 MEMB     110      SAPE     C315     CTL2    -0.180000       12.0110           0
     12720 MEMB     110      SAPE     H15X     HAL2     0.900000E-01   1.00800           0
     12721 MEMB     110      SAPE     H15Y     HAL2     0.900000E-01   1.00800           0
     12722 MEMB     110      SAPE     C316     CTL2    -0.180000       12.0110           0
     12723 MEMB     110      SAPE     H16X     HAL2     0.900000E-01   1.00800           0
     12724 MEMB     110      SAPE     H16Y     HAL2     0.900000E-01   1.00800           0
     12725 MEMB     110      SAPE     C317     CTL2    -0.180000       12.0110           0
     12726 MEMB     110      SAPE     H17X     HAL2     0.900000E-01   1.00800           0
     12727 MEMB     110      SAPE     H17Y     HAL2     0.900000E-01   1.00800           0
     12728 MEMB     110      SAPE     C318     CTL3    -0.270000       12.0110           0
     12729 MEMB     110      SAPE     H18X     HAL3     0.900000E-01   1.00800           0
     12730 MEMB     110      SAPE     H18Y     HAL3     0.900000E-01   1.00800           0
     12731 MEMB     110      SAPE     H18Z     HAL3     0.900000E-01   1.00800           0
     12732 MEMB     111      SLPC     N        NTL     -0.600000       14.0070           0
     12733 MEMB     111      SLPC     C13      CTL5    -0.350000       12.0110           0
     12734 MEMB     111      SLPC     H13A     HL       0.250000       1.00800           0
     12735 MEMB     111      SLPC     H13B     HL       0.250000       1.00800           0
     12736 MEMB     111      SLPC     H13C     HL       0.250000       1.00800           0
     12737 MEMB     111      SLPC     C14      CTL5    -0.350000       12.0110           0
     12738 MEMB     111      SLPC     H14A     HL       0.250000       1.00800           0
     12739 MEMB     111      SLPC     H14B     HL       0.250000       1.00800           0
     12740 MEMB     111      SLPC     H14C     HL       0.250000       1.00800           0
     12741 MEMB     111      SLPC     C15      CTL5    -0.350000       12.0110           0
     12742 MEMB     111      SLPC     H15A     HL       0.250000       1.00800           0
     12743 MEMB     111      SLPC     H15B     HL       0.250000       1.00800           0
     12744 MEMB     111      SLPC     H15C     HL       0.250000       1.00800           0
     12745 MEMB     111      SLPC     C12      CTL2    -0.100000       12.0110           0
     12746 MEMB     111      SLPC     H12A     HL       0.250000       1.00800           0
     12747 MEMB     111      SLPC     H12B     HL       0.250000       1.00800           0
     12748 MEMB     111      SLPC     C11      CTL2    -0.800000E-01   12.0110           0
     12749 MEMB     111      SLPC     H11A     HAL2     0.900000E-01   1.00800           0
     12750 MEMB     111      SLPC     H11B     HAL2     0.900000E-01   1.00800           0
     12751 MEMB     111      SLPC     P        PL        1.50000       30.9740           0
     12752 MEMB     111      SLPC     O13      O2L     -0.780000       15.9994           0
     12753 MEMB     111      SLPC     O14      O2L     -0.780000       15.9994           0
     12754 MEMB     111      SLPC     O12      OSLP    -0.570000       15.9994           0
     12755 MEMB     111      SLPC     O11      OSLP    -0.570000       15.9994           0
     12756 MEMB     111      SLPC     C1       CTL2    -0.800000E-01   12.0110           0
     12757 MEMB     111      SLPC     HA       HAL2     0.900000E-01   1.00800           0
     12758 MEMB     111      SLPC     HB       HAL2     0.900000E-01   1.00800           0
     12759 MEMB     111      SLPC     C2       CTL1     0.170000       12.0110           0
     12760 MEMB     111      SLPC     HS       HAL1     0.900000E-01   1.00800           0
     12761 MEMB     111      SLPC     O21      OSL     -0.490000       15.9994           0
     12762 MEMB     111      SLPC     C21      CL       0.900000       12.0110           0
     12763 MEMB     111      SLPC     O22      OBL     -0.630000       15.9994           0
     12764 MEMB     111      SLPC     C22      CTL2    -0.220000       12.0110           0
     12765 MEMB     111      SLPC     H2R      HAL2     0.900000E-01   1.00800           0
     12766 MEMB     111      SLPC     H2S      HAL2     0.900000E-01   1.00800           0
     12767 MEMB     111      SLPC     C3       CTL2     0.800000E-01   12.0110           0
     12768 MEMB     111      SLPC     HX       HAL2     0.900000E-01   1.00800           0
     12769 MEMB     111      SLPC     HY       HAL2     0.900000E-01   1.00800           0
     12770 MEMB     111      SLPC     O31      OSL     -0.490000       15.9994           0
     12771 MEMB     111      SLPC     C31      CL       0.900000       12.0110           0
     12772 MEMB     111      SLPC     O32      OBL     -0.630000       15.9994           0
     12773 MEMB     111      SLPC     C32      CTL2    -0.220000       12.0110           0
     12774 MEMB     111      SLPC     H2X      HAL2     0.900000E-01   1.00800           0
     12775 MEMB     111      SLPC     H2Y      HAL2     0.900000E-01   1.00800           0
     12776 MEMB     111      SLPC     C23      CTL2    -0.180000       12.0110           0
     12777 MEMB     111      SLPC     H3R      HAL2     0.900000E-01   1.00800           0
     12778 MEMB     111      SLPC     H3S      HAL2     0.900000E-01   1.00800           0
     12779 MEMB     111      SLPC     C24      CTL2    -0.180000       12.0110           0
     12780 MEMB     111      SLPC     H4R      HAL2     0.900000E-01   1.00800           0
     12781 MEMB     111      SLPC     H4S      HAL2     0.900000E-01   1.00800           0
     12782 MEMB     111      SLPC     C25      CTL2    -0.180000       12.0110           0
     12783 MEMB     111      SLPC     H5R      HAL2     0.900000E-01   1.00800           0
     12784 MEMB     111      SLPC     H5S      HAL2     0.900000E-01   1.00800           0
     12785 MEMB     111      SLPC     C26      CTL2    -0.180000       12.0110           0
     12786 MEMB     111      SLPC     H6R      HAL2     0.900000E-01   1.00800           0
     12787 MEMB     111      SLPC     H6S      HAL2     0.900000E-01   1.00800           0
     12788 MEMB     111      SLPC     C27      CTL2    -0.180000       12.0110           0
     12789 MEMB     111      SLPC     H7R      HAL2     0.900000E-01   1.00800           0
     12790 MEMB     111      SLPC     H7S      HAL2     0.900000E-01   1.00800           0
     12791 MEMB     111      SLPC     C28      CTL2    -0.180000       12.0110           0
     12792 MEMB     111      SLPC     H8R      HAL2     0.900000E-01   1.00800           0
     12793 MEMB     111      SLPC     H8S      HAL2     0.900000E-01   1.00800           0
     12794 MEMB     111      SLPC     C29      CEL1    -0.150000       12.0110           0
     12795 MEMB     111      SLPC     H9R      HEL1     0.150000       1.00800           0
     12796 MEMB     111      SLPC     C210     CEL1    -0.150000       12.0110           0
     12797 MEMB     111      SLPC     H10R     HEL1     0.150000       1.00800           0
     12798 MEMB     111      SLPC     C211     CTL2    -0.180000       12.0110           0
     12799 MEMB     111      SLPC     H11R     HAL2     0.900000E-01   1.00800           0
     12800 MEMB     111      SLPC     H11S     HAL2     0.900000E-01   1.00800           0
     12801 MEMB     111      SLPC     C212     CEL1    -0.150000       12.0110           0
     12802 MEMB     111      SLPC     H12R     HEL1     0.150000       1.00800           0
     12803 MEMB     111      SLPC     C213     CEL1    -0.150000       12.0110           0
     12804 MEMB     111      SLPC     H13R     HEL1     0.150000       1.00800           0
     12805 MEMB     111      SLPC     C214     CTL2    -0.180000       12.0110           0
     12806 MEMB     111      SLPC     H14R     HAL2     0.900000E-01   1.00800           0
     12807 MEMB     111      SLPC     H14S     HAL2     0.900000E-01   1.00800           0
     12808 MEMB     111      SLPC     C215     CTL2    -0.180000       12.0110           0
     12809 MEMB     111      SLPC     H15R     HAL2     0.900000E-01   1.00800           0
     12810 MEMB     111      SLPC     H15S     HAL2     0.900000E-01   1.00800           0
     12811 MEMB     111      SLPC     C216     CTL2    -0.180000       12.0110           0
     12812 MEMB     111      SLPC     H16R     HAL2     0.900000E-01   1.00800           0
     12813 MEMB     111      SLPC     H16S     HAL2     0.900000E-01   1.00800           0
     12814 MEMB     111      SLPC     C217     CTL2    -0.180000       12.0110           0
     12815 MEMB     111      SLPC     H17R     HAL2     0.900000E-01   1.00800           0
     12816 MEMB     111      SLPC     H17S     HAL2     0.900000E-01   1.00800           0
     12817 MEMB     111      SLPC     C218     CTL3    -0.270000       12.0110           0
     12818 MEMB     111      SLPC     H18R     HAL3     0.900000E-01   1.00800           0
     12819 MEMB     111      SLPC     H18S     HAL3     0.900000E-01   1.00800           0
     12820 MEMB     111      SLPC     H18T     HAL3     0.900000E-01   1.00800           0
     12821 MEMB     111      SLPC     C33      CTL2    -0.180000       12.0110           0
     12822 MEMB     111      SLPC     H3X      HAL2     0.900000E-01   1.00800           0
     12823 MEMB     111      SLPC     H3Y      HAL2     0.900000E-01   1.00800           0
     12824 MEMB     111      SLPC     C34      CTL2    -0.180000       12.0110           0
     12825 MEMB     111      SLPC     H4X      HAL2     0.900000E-01   1.00800           0
     12826 MEMB     111      SLPC     H4Y      HAL2     0.900000E-01   1.00800           0
     12827 MEMB     111      SLPC     C35      CTL2    -0.180000       12.0110           0
     12828 MEMB     111      SLPC     H5X      HAL2     0.900000E-01   1.00800           0
     12829 MEMB     111      SLPC     H5Y      HAL2     0.900000E-01   1.00800           0
     12830 MEMB     111      SLPC     C36      CTL2    -0.180000       12.0110           0
     12831 MEMB     111      SLPC     H6X      HAL2     0.900000E-01   1.00800           0
     12832 MEMB     111      SLPC     H6Y      HAL2     0.900000E-01   1.00800           0
     12833 MEMB     111      SLPC     C37      CTL2    -0.180000       12.0110           0
     12834 MEMB     111      SLPC     H7X      HAL2     0.900000E-01   1.00800           0
     12835 MEMB     111      SLPC     H7Y      HAL2     0.900000E-01   1.00800           0
     12836 MEMB     111      SLPC     C38      CTL2    -0.180000       12.0110           0
     12837 MEMB     111      SLPC     H8X      HAL2     0.900000E-01   1.00800           0
     12838 MEMB     111      SLPC     H8Y      HAL2     0.900000E-01   1.00800           0
     12839 MEMB     111      SLPC     C39      CTL2    -0.180000       12.0110           0
     12840 MEMB     111      SLPC     H9X      HAL2     0.900000E-01   1.00800           0
     12841 MEMB     111      SLPC     H9Y      HAL2     0.900000E-01   1.00800           0
     12842 MEMB     111      SLPC     C310     CTL2    -0.180000       12.0110           0
     12843 MEMB     111      SLPC     H10X     HAL2     0.900000E-01   1.00800           0
     12844 MEMB     111      SLPC     H10Y     HAL2     0.900000E-01   1.00800           0
     12845 MEMB     111      SLPC     C311     CTL2    -0.180000       12.0110           0
     12846 MEMB     111      SLPC     H11X     HAL2     0.900000E-01   1.00800           0
     12847 MEMB     111      SLPC     H11Y     HAL2     0.900000E-01   1.00800           0
     12848 MEMB     111      SLPC     C312     CTL2    -0.180000       12.0110           0
     12849 MEMB     111      SLPC     H12X     HAL2     0.900000E-01   1.00800           0
     12850 MEMB     111      SLPC     H12Y     HAL2     0.900000E-01   1.00800           0
     12851 MEMB     111      SLPC     C313     CTL2    -0.180000       12.0110           0
     12852 MEMB     111      SLPC     H13X     HAL2     0.900000E-01   1.00800           0
     12853 MEMB     111      SLPC     H13Y     HAL2     0.900000E-01   1.00800           0
     12854 MEMB     111      SLPC     C314     CTL2    -0.180000       12.0110           0
     12855 MEMB     111      SLPC     H14X     HAL2     0.900000E-01   1.00800           0
     12856 MEMB     111      SLPC     H14Y     HAL2     0.900000E-01   1.00800           0
     12857 MEMB     111      SLPC     C315     CTL2    -0.180000       12.0110           0
     12858 MEMB     111      SLPC     H15X     HAL2     0.900000E-01   1.00800           0
     12859 MEMB     111      SLPC     H15Y     HAL2     0.900000E-01   1.00800           0
     12860 MEMB     111      SLPC     C316     CTL2    -0.180000       12.0110           0
     12861 MEMB     111      SLPC     H16X     HAL2     0.900000E-01   1.00800           0
     12862 MEMB     111      SLPC     H16Y     HAL2     0.900000E-01   1.00800           0
     12863 MEMB     111      SLPC     C317     CTL2    -0.180000       12.0110           0
     12864 MEMB     111      SLPC     H17X     HAL2     0.900000E-01   1.00800           0
     12865 MEMB     111      SLPC     H17Y     HAL2     0.900000E-01   1.00800           0
     12866 MEMB     111      SLPC     C318     CTL3    -0.270000       12.0110           0
     12867 MEMB     111      SLPC     H18X     HAL3     0.900000E-01   1.00800           0
     12868 MEMB     111      SLPC     H18Y     HAL3     0.900000E-01   1.00800           0
     12869 MEMB     111      SLPC     H18Z     HAL3     0.900000E-01   1.00800           0
     12870 MEMB     112      CHL1     C3       CRL1     0.140000       12.0110           0
     12871 MEMB     112      CHL1     H3       HGA1     0.900000E-01   1.00800           0
     12872 MEMB     112      CHL1     O3       OHL     -0.660000       15.9994           0
     12873 MEMB     112      CHL1     H3'      HOL      0.430000       1.00800           0
     12874 MEMB     112      CHL1     C4       CRL2    -0.180000       12.0110           0
     12875 MEMB     112      CHL1     H4A      HGA2     0.900000E-01   1.00800           0
     12876 MEMB     112      CHL1     H4B      HGA2     0.900000E-01   1.00800           0
     12877 MEMB     112      CHL1     C5       CEL1      0.00000       12.0110           0
     12878 MEMB     112      CHL1     C6       CEL1    -0.150000       12.0110           0
     12879 MEMB     112      CHL1     H6       HEL1     0.150000       1.00800           0
     12880 MEMB     112      CHL1     C7       CRL2    -0.180000       12.0110           0
     12881 MEMB     112      CHL1     H7A      HGA2     0.900000E-01   1.00800           0
     12882 MEMB     112      CHL1     H7B      HGA2     0.900000E-01   1.00800           0
     12883 MEMB     112      CHL1     C8       CRL1    -0.900000E-01   12.0110           0
     12884 MEMB     112      CHL1     H8       HGA1     0.900000E-01   1.00800           0
     12885 MEMB     112      CHL1     C14      CRL1    -0.900000E-01   12.0110           0
     12886 MEMB     112      CHL1     H14      HGA1     0.900000E-01   1.00800           0
     12887 MEMB     112      CHL1     C15      CRL2    -0.180000       12.0110           0
     12888 MEMB     112      CHL1     H15A     HGA2     0.900000E-01   1.00800           0
     12889 MEMB     112      CHL1     H15B     HGA2     0.900000E-01   1.00800           0
     12890 MEMB     112      CHL1     C16      CRL2    -0.180000       12.0110           0
     12891 MEMB     112      CHL1     H16A     HGA2     0.900000E-01   1.00800           0
     12892 MEMB     112      CHL1     H16B     HGA2     0.900000E-01   1.00800           0
     12893 MEMB     112      CHL1     C17      CRL1    -0.900000E-01   12.0110           0
     12894 MEMB     112      CHL1     H17      HGA1     0.900000E-01   1.00800           0
     12895 MEMB     112      CHL1     C13      CRL1      0.00000       12.0110           0
     12896 MEMB     112      CHL1     C18      CTL3    -0.270000       12.0110           0
     12897 MEMB     112      CHL1     H18A     HAL3     0.900000E-01   1.00800           0
     12898 MEMB     112      CHL1     H18B     HAL3     0.900000E-01   1.00800           0
     12899 MEMB     112      CHL1     H18C     HAL3     0.900000E-01   1.00800           0
     12900 MEMB     112      CHL1     C12      CRL2    -0.180000       12.0110           0
     12901 MEMB     112      CHL1     H12A     HGA2     0.900000E-01   1.00800           0
     12902 MEMB     112      CHL1     H12B     HGA2     0.900000E-01   1.00800           0
     12903 MEMB     112      CHL1     C11      CRL2    -0.180000       12.0110           0
     12904 MEMB     112      CHL1     H11A     HGA2     0.900000E-01   1.00800           0
     12905 MEMB     112      CHL1     H11B     HGA2     0.900000E-01   1.00800           0
     12906 MEMB     112      CHL1     C9       CRL1    -0.900000E-01   12.0110           0
     12907 MEMB     112      CHL1     H9       HGA1     0.900000E-01   1.00800           0
     12908 MEMB     112      CHL1     C10      CRL1      0.00000       12.0110           0
     12909 MEMB     112      CHL1     C19      CTL3    -0.270000       12.0110           0
     12910 MEMB     112      CHL1     H19A     HAL3     0.900000E-01   1.00800           0
     12911 MEMB     112      CHL1     H19B     HAL3     0.900000E-01   1.00800           0
     12912 MEMB     112      CHL1     H19C     HAL3     0.900000E-01   1.00800           0
     12913 MEMB     112      CHL1     C1       CRL2    -0.180000       12.0110           0
     12914 MEMB     112      CHL1     H1A      HGA2     0.900000E-01   1.00800           0
     12915 MEMB     112      CHL1     H1B      HGA2     0.900000E-01   1.00800           0
     12916 MEMB     112      CHL1     C2       CRL2    -0.180000       12.0110           0
     12917 MEMB     112      CHL1     H2A      HGA2     0.900000E-01   1.00800           0
     12918 MEMB     112      CHL1     H2B      HGA2     0.900000E-01   1.00800           0
     12919 MEMB     112      CHL1     C20      CTL1    -0.900000E-01   12.0110           0
     12920 MEMB     112      CHL1     H20      HAL1     0.900000E-01   1.00800           0
     12921 MEMB     112      CHL1     C21      CTL3    -0.270000       12.0110           0
     12922 MEMB     112      CHL1     H21A     HAL3     0.900000E-01   1.00800           0
     12923 MEMB     112      CHL1     H21B     HAL3     0.900000E-01   1.00800           0
     12924 MEMB     112      CHL1     H21C     HAL3     0.900000E-01   1.00800           0
     12925 MEMB     112      CHL1     C22      CTL2    -0.180000       12.0110           0
     12926 MEMB     112      CHL1     H22A     HAL2     0.900000E-01   1.00800           0
     12927 MEMB     112      CHL1     H22B     HAL2     0.900000E-01   1.00800           0
     12928 MEMB     112      CHL1     C23      CTL2    -0.180000       12.0110           0
     12929 MEMB     112      CHL1     H23A     HAL2     0.900000E-01   1.00800           0
     12930 MEMB     112      CHL1     H23B     HAL2     0.900000E-01   1.00800           0
     12931 MEMB     112      CHL1     C24      CTL2    -0.180000       12.0110           0
     12932 MEMB     112      CHL1     H24A     HAL2     0.900000E-01   1.00800           0
     12933 MEMB     112      CHL1     H24B     HAL2     0.900000E-01   1.00800           0
     12934 MEMB     112      CHL1     C25      CTL1    -0.900000E-01   12.0110           0
     12935 MEMB     112      CHL1     H25      HAL1     0.900000E-01   1.00800           0
     12936 MEMB     112      CHL1     C26      CTL3    -0.270000       12.0110           0
     12937 MEMB     112      CHL1     H26A     HAL3     0.900000E-01   1.00800           0
     12938 MEMB     112      CHL1     H26B     HAL3     0.900000E-01   1.00800           0
     12939 MEMB     112      CHL1     H26C     HAL3     0.900000E-01   1.00800           0
     12940 MEMB     112      CHL1     C27      CTL3    -0.270000       12.0110           0
     12941 MEMB     112      CHL1     H27A     HAL3     0.900000E-01   1.00800           0
     12942 MEMB     112      CHL1     H27B     HAL3     0.900000E-01   1.00800           0
     12943 MEMB     112      CHL1     H27C     HAL3     0.900000E-01   1.00800           0
     12944 MEMB     113      SAPE     N        NH3L    -0.300000       14.0070           0
     12945 MEMB     113      SAPE     HN1      HCL      0.330000       1.00800           0
     12946 MEMB     113      SAPE     HN2      HCL      0.330000       1.00800           0
     12947 MEMB     113      SAPE     HN3      HCL      0.330000       1.00800           0
     12948 MEMB     113      SAPE     C12      CTL2     0.130000       12.0110           0
     12949 MEMB     113      SAPE     H12A     HAL2     0.900000E-01   1.00800           0
     12950 MEMB     113      SAPE     H12B     HAL2     0.900000E-01   1.00800           0
     12951 MEMB     113      SAPE     C11      CTL2    -0.800000E-01   12.0110           0
     12952 MEMB     113      SAPE     H11A     HAL2     0.900000E-01   1.00800           0
     12953 MEMB     113      SAPE     H11B     HAL2     0.900000E-01   1.00800           0
     12954 MEMB     113      SAPE     P        PL        1.50000       30.9740           0
     12955 MEMB     113      SAPE     O13      O2L     -0.780000       15.9994           0
     12956 MEMB     113      SAPE     O14      O2L     -0.780000       15.9994           0
     12957 MEMB     113      SAPE     O12      OSLP    -0.570000       15.9994           0
     12958 MEMB     113      SAPE     O11      OSLP    -0.570000       15.9994           0
     12959 MEMB     113      SAPE     C1       CTL2    -0.800000E-01   12.0110           0
     12960 MEMB     113      SAPE     HA       HAL2     0.900000E-01   1.00800           0
     12961 MEMB     113      SAPE     HB       HAL2     0.900000E-01   1.00800           0
     12962 MEMB     113      SAPE     C2       CTL1     0.170000       12.0110           0
     12963 MEMB     113      SAPE     HS       HAL1     0.900000E-01   1.00800           0
     12964 MEMB     113      SAPE     O21      OSL     -0.490000       15.9994           0
     12965 MEMB     113      SAPE     C21      CL       0.900000       12.0110           0
     12966 MEMB     113      SAPE     O22      OBL     -0.630000       15.9994           0
     12967 MEMB     113      SAPE     C22      CTL2    -0.220000       12.0110           0
     12968 MEMB     113      SAPE     H2R      HAL2     0.900000E-01   1.00800           0
     12969 MEMB     113      SAPE     H2S      HAL2     0.900000E-01   1.00800           0
     12970 MEMB     113      SAPE     C3       CTL2     0.800000E-01   12.0110           0
     12971 MEMB     113      SAPE     HX       HAL2     0.900000E-01   1.00800           0
     12972 MEMB     113      SAPE     HY       HAL2     0.900000E-01   1.00800           0
     12973 MEMB     113      SAPE     O31      OSL     -0.490000       15.9994           0
     12974 MEMB     113      SAPE     C31      CL       0.900000       12.0110           0
     12975 MEMB     113      SAPE     O32      OBL     -0.630000       15.9994           0
     12976 MEMB     113      SAPE     C32      CTL2    -0.220000       12.0110           0
     12977 MEMB     113      SAPE     H2X      HAL2     0.900000E-01   1.00800           0
     12978 MEMB     113      SAPE     H2Y      HAL2     0.900000E-01   1.00800           0
     12979 MEMB     113      SAPE     C23      CTL2    -0.180000       12.0110           0
     12980 MEMB     113      SAPE     H3R      HAL2     0.900000E-01   1.00800           0
     12981 MEMB     113      SAPE     H3S      HAL2     0.900000E-01   1.00800           0
     12982 MEMB     113      SAPE     C24      CTL2    -0.180000       12.0110           0
     12983 MEMB     113      SAPE     H4R      HAL2     0.900000E-01   1.00800           0
     12984 MEMB     113      SAPE     H4S      HAL2     0.900000E-01   1.00800           0
     12985 MEMB     113      SAPE     C25      CEL1    -0.150000       12.0110           0
     12986 MEMB     113      SAPE     H5R      HEL1     0.150000       1.00800           0
     12987 MEMB     113      SAPE     C26      CEL1    -0.150000       12.0110           0
     12988 MEMB     113      SAPE     H6R      HEL1     0.150000       1.00800           0
     12989 MEMB     113      SAPE     C27      CTL2    -0.180000       12.0110           0
     12990 MEMB     113      SAPE     H7R      HAL2     0.900000E-01   1.00800           0
     12991 MEMB     113      SAPE     H7S      HAL2     0.900000E-01   1.00800           0
     12992 MEMB     113      SAPE     C28      CEL1    -0.150000       12.0110           0
     12993 MEMB     113      SAPE     H8R      HEL1     0.150000       1.00800           0
     12994 MEMB     113      SAPE     C29      CEL1    -0.150000       12.0110           0
     12995 MEMB     113      SAPE     H9R      HEL1     0.150000       1.00800           0
     12996 MEMB     113      SAPE     C210     CTL2    -0.180000       12.0110           0
     12997 MEMB     113      SAPE     H10R     HAL2     0.900000E-01   1.00800           0
     12998 MEMB     113      SAPE     H10S     HAL2     0.900000E-01   1.00800           0
     12999 MEMB     113      SAPE     C211     CEL1    -0.150000       12.0110           0
     13000 MEMB     113      SAPE     H11R     HEL1     0.150000       1.00800           0
     13001 MEMB     113      SAPE     C212     CEL1    -0.150000       12.0110           0
     13002 MEMB     113      SAPE     H12R     HEL1     0.150000       1.00800           0
     13003 MEMB     113      SAPE     C213     CTL2    -0.180000       12.0110           0
     13004 MEMB     113      SAPE     H13R     HAL2     0.900000E-01   1.00800           0
     13005 MEMB     113      SAPE     H13S     HAL2     0.900000E-01   1.00800           0
     13006 MEMB     113      SAPE     C214     CEL1    -0.150000       12.0110           0
     13007 MEMB     113      SAPE     H14R     HEL1     0.150000       1.00800           0
     13008 MEMB     113      SAPE     C215     CEL1    -0.150000       12.0110           0
     13009 MEMB     113      SAPE     H15R     HEL1     0.150000       1.00800           0
     13010 MEMB     113      SAPE     C216     CTL2    -0.180000       12.0110           0
     13011 MEMB     113      SAPE     H16R     HAL2     0.900000E-01   1.00800           0
     13012 MEMB     113      SAPE     H16S     HAL2     0.900000E-01   1.00800           0
     13013 MEMB     113      SAPE     C217     CTL2    -0.180000       12.0110           0
     13014 MEMB     113      SAPE     H17R     HAL2     0.900000E-01   1.00800           0
     13015 MEMB     113      SAPE     H17S     HAL2     0.900000E-01   1.00800           0
     13016 MEMB     113      SAPE     C218     CTL2    -0.180000       12.0110           0
     13017 MEMB     113      SAPE     H18R     HAL2     0.900000E-01   1.00800           0
     13018 MEMB     113      SAPE     H18S     HAL2     0.900000E-01   1.00800           0
     13019 MEMB     113      SAPE     C219     CTL2    -0.180000       12.0110           0
     13020 MEMB     113      SAPE     H19R     HAL2     0.900000E-01   1.00800           0
     13021 MEMB     113      SAPE     H19S     HAL2     0.900000E-01   1.00800           0
     13022 MEMB     113      SAPE     C220     CTL3    -0.270000       12.0110           0
     13023 MEMB     113      SAPE     H20R     HAL3     0.900000E-01   1.00800           0
     13024 MEMB     113      SAPE     H20S     HAL3     0.900000E-01   1.00800           0
     13025 MEMB     113      SAPE     H20T     HAL3     0.900000E-01   1.00800           0
     13026 MEMB     113      SAPE     C33      CTL2    -0.180000       12.0110           0
     13027 MEMB     113      SAPE     H3X      HAL2     0.900000E-01   1.00800           0
     13028 MEMB     113      SAPE     H3Y      HAL2     0.900000E-01   1.00800           0
     13029 MEMB     113      SAPE     C34      CTL2    -0.180000       12.0110           0
     13030 MEMB     113      SAPE     H4X      HAL2     0.900000E-01   1.00800           0
     13031 MEMB     113      SAPE     H4Y      HAL2     0.900000E-01   1.00800           0
     13032 MEMB     113      SAPE     C35      CTL2    -0.180000       12.0110           0
     13033 MEMB     113      SAPE     H5X      HAL2     0.900000E-01   1.00800           0
     13034 MEMB     113      SAPE     H5Y      HAL2     0.900000E-01   1.00800           0
     13035 MEMB     113      SAPE     C36      CTL2    -0.180000       12.0110           0
     13036 MEMB     113      SAPE     H6X      HAL2     0.900000E-01   1.00800           0
     13037 MEMB     113      SAPE     H6Y      HAL2     0.900000E-01   1.00800           0
     13038 MEMB     113      SAPE     C37      CTL2    -0.180000       12.0110           0
     13039 MEMB     113      SAPE     H7X      HAL2     0.900000E-01   1.00800           0
     13040 MEMB     113      SAPE     H7Y      HAL2     0.900000E-01   1.00800           0
     13041 MEMB     113      SAPE     C38      CTL2    -0.180000       12.0110           0
     13042 MEMB     113      SAPE     H8X      HAL2     0.900000E-01   1.00800           0
     13043 MEMB     113      SAPE     H8Y      HAL2     0.900000E-01   1.00800           0
     13044 MEMB     113      SAPE     C39      CTL2    -0.180000       12.0110           0
     13045 MEMB     113      SAPE     H9X      HAL2     0.900000E-01   1.00800           0
     13046 MEMB     113      SAPE     H9Y      HAL2     0.900000E-01   1.00800           0
     13047 MEMB     113      SAPE     C310     CTL2    -0.180000       12.0110           0
     13048 MEMB     113      SAPE     H10X     HAL2     0.900000E-01   1.00800           0
     13049 MEMB     113      SAPE     H10Y     HAL2     0.900000E-01   1.00800           0
     13050 MEMB     113      SAPE     C311     CTL2    -0.180000       12.0110           0
     13051 MEMB     113      SAPE     H11X     HAL2     0.900000E-01   1.00800           0
     13052 MEMB     113      SAPE     H11Y     HAL2     0.900000E-01   1.00800           0
     13053 MEMB     113      SAPE     C312     CTL2    -0.180000       12.0110           0
     13054 MEMB     113      SAPE     H12X     HAL2     0.900000E-01   1.00800           0
     13055 MEMB     113      SAPE     H12Y     HAL2     0.900000E-01   1.00800           0
     13056 MEMB     113      SAPE     C313     CTL2    -0.180000       12.0110           0
     13057 MEMB     113      SAPE     H13X     HAL2     0.900000E-01   1.00800           0
     13058 MEMB     113      SAPE     H13Y     HAL2     0.900000E-01   1.00800           0
     13059 MEMB     113      SAPE     C314     CTL2    -0.180000       12.0110           0
     13060 MEMB     113      SAPE     H14X     HAL2     0.900000E-01   1.00800           0
     13061 MEMB     113      SAPE     H14Y     HAL2     0.900000E-01   1.00800           0
     13062 MEMB     113      SAPE     C315     CTL2    -0.180000       12.0110           0
     13063 MEMB     113      SAPE     H15X     HAL2     0.900000E-01   1.00800           0
     13064 MEMB     113      SAPE     H15Y     HAL2     0.900000E-01   1.00800           0
     13065 MEMB     113      SAPE     C316     CTL2    -0.180000       12.0110           0
     13066 MEMB     113      SAPE     H16X     HAL2     0.900000E-01   1.00800           0
     13067 MEMB     113      SAPE     H16Y     HAL2     0.900000E-01   1.00800           0
     13068 MEMB     113      SAPE     C317     CTL2    -0.180000       12.0110           0
     13069 MEMB     113      SAPE     H17X     HAL2     0.900000E-01   1.00800           0
     13070 MEMB     113      SAPE     H17Y     HAL2     0.900000E-01   1.00800           0
     13071 MEMB     113      SAPE     C318     CTL3    -0.270000       12.0110           0
     13072 MEMB     113      SAPE     H18X     HAL3     0.900000E-01   1.00800           0
     13073 MEMB     113      SAPE     H18Y     HAL3     0.900000E-01   1.00800           0
     13074 MEMB     113      SAPE     H18Z     HAL3     0.900000E-01   1.00800           0
     13075 MEMB     114      OSM      N        NTL     -0.600000       14.0070           0
     13076 MEMB     114      OSM      C15      CTL5    -0.350000       12.0110           0
     13077 MEMB     114      OSM      H15A     HL       0.250000       1.00800           0
     13078 MEMB     114      OSM      H15B     HL       0.250000       1.00800           0
     13079 MEMB     114      OSM      H15C     HL       0.250000       1.00800           0
     13080 MEMB     114      OSM      C14      CTL5    -0.350000       12.0110           0
     13081 MEMB     114      OSM      H14A     HL       0.250000       1.00800           0
     13082 MEMB     114      OSM      H14B     HL       0.250000       1.00800           0
     13083 MEMB     114      OSM      H14C     HL       0.250000       1.00800           0
     13084 MEMB     114      OSM      C13      CTL5    -0.350000       12.0110           0
     13085 MEMB     114      OSM      H13A     HL       0.250000       1.00800           0
     13086 MEMB     114      OSM      H13B     HL       0.250000       1.00800           0
     13087 MEMB     114      OSM      H13C     HL       0.250000       1.00800           0
     13088 MEMB     114      OSM      C12      CTL2    -0.100000       12.0110           0
     13089 MEMB     114      OSM      H12A     HL       0.250000       1.00800           0
     13090 MEMB     114      OSM      H12B     HL       0.250000       1.00800           0
     13091 MEMB     114      OSM      C11      CTL2    -0.800000E-01   12.0110           0
     13092 MEMB     114      OSM      H11A     HAL2     0.900000E-01   1.00800           0
     13093 MEMB     114      OSM      H11B     HAL2     0.900000E-01   1.00800           0
     13094 MEMB     114      OSM      P        PL        1.50000       30.9740           0
     13095 MEMB     114      OSM      O13      O2L     -0.780000       15.9994           0
     13096 MEMB     114      OSM      O14      O2L     -0.780000       15.9994           0
     13097 MEMB     114      OSM      O11      OSLP    -0.570000       15.9994           0
     13098 MEMB     114      OSM      O12      OSLP    -0.570000       15.9994           0
     13099 MEMB     114      OSM      C1S      CTL2    -0.800000E-01   12.0110           0
     13100 MEMB     114      OSM      H1S      HAL2     0.900000E-01   1.00800           0
     13101 MEMB     114      OSM      H1T      HAL2     0.900000E-01   1.00800           0
     13102 MEMB     114      OSM      NF       NHL     -0.700000       14.0070           0
     13103 MEMB     114      OSM      HNF      H        0.350000       1.00800           0
     13104 MEMB     114      OSM      C2S      CTL1     0.300000       12.0110           0
     13105 MEMB     114      OSM      H2S      HAL1     0.500000E-01   1.00800           0
     13106 MEMB     114      OSM      C3S      CTO1     0.500000       12.0110           0
     13107 MEMB     114      OSM      H3S      HAL1    -0.110000       1.00800           0
     13108 MEMB     114      OSM      O3       OHL     -0.690000       15.9994           0
     13109 MEMB     114      OSM      HO3      HOL      0.300000       1.00800           0
     13110 MEMB     114      OSM      C4S      CEL3    -0.150000       12.0110           0
     13111 MEMB     114      OSM      H4S      HEL1     0.150000       1.00800           0
     13112 MEMB     114      OSM      C5S      CEL3    -0.150000       12.0110           0
     13113 MEMB     114      OSM      H5S      HEL1     0.150000       1.00800           0
     13114 MEMB     114      OSM      C6S      CTL2    -0.180000       12.0110           0
     13115 MEMB     114      OSM      H6S      HAL2     0.900000E-01   1.00800           0
     13116 MEMB     114      OSM      H6T      HAL2     0.900000E-01   1.00800           0
     13117 MEMB     114      OSM      C7S      CTL2    -0.180000       12.0110           0
     13118 MEMB     114      OSM      H7S      HAL2     0.900000E-01   1.00800           0
     13119 MEMB     114      OSM      H7T      HAL2     0.900000E-01   1.00800           0
     13120 MEMB     114      OSM      C8S      CTL2    -0.180000       12.0110           0
     13121 MEMB     114      OSM      H8S      HAL2     0.900000E-01   1.00800           0
     13122 MEMB     114      OSM      H8T      HAL2     0.900000E-01   1.00800           0
     13123 MEMB     114      OSM      C9S      CTL2    -0.180000       12.0110           0
     13124 MEMB     114      OSM      H9S      HAL2     0.900000E-01   1.00800           0
     13125 MEMB     114      OSM      H9T      HAL2     0.900000E-01   1.00800           0
     13126 MEMB     114      OSM      C10S     CTL2    -0.180000       12.0110           0
     13127 MEMB     114      OSM      H10S     HAL2     0.900000E-01   1.00800           0
     13128 MEMB     114      OSM      H10T     HAL2     0.900000E-01   1.00800           0
     13129 MEMB     114      OSM      C11S     CTL2    -0.180000       12.0110           0
     13130 MEMB     114      OSM      H11S     HAL2     0.900000E-01   1.00800           0
     13131 MEMB     114      OSM      H11T     HAL2     0.900000E-01   1.00800           0
     13132 MEMB     114      OSM      C12S     CTL2    -0.180000       12.0110           0
     13133 MEMB     114      OSM      H12S     HAL2     0.900000E-01   1.00800           0
     13134 MEMB     114      OSM      H12T     HAL2     0.900000E-01   1.00800           0
     13135 MEMB     114      OSM      C13S     CTL2    -0.180000       12.0110           0
     13136 MEMB     114      OSM      H13S     HAL2     0.900000E-01   1.00800           0
     13137 MEMB     114      OSM      H13T     HAL2     0.900000E-01   1.00800           0
     13138 MEMB     114      OSM      C14S     CTL2    -0.180000       12.0110           0
     13139 MEMB     114      OSM      H14S     HAL2     0.900000E-01   1.00800           0
     13140 MEMB     114      OSM      H14T     HAL2     0.900000E-01   1.00800           0
     13141 MEMB     114      OSM      C15S     CTL2    -0.180000       12.0110           0
     13142 MEMB     114      OSM      H15S     HAL2     0.900000E-01   1.00800           0
     13143 MEMB     114      OSM      H15T     HAL2     0.900000E-01   1.00800           0
     13144 MEMB     114      OSM      C16S     CTL2    -0.180000       12.0110           0
     13145 MEMB     114      OSM      H16S     HAL2     0.900000E-01   1.00800           0
     13146 MEMB     114      OSM      H16T     HAL2     0.900000E-01   1.00800           0
     13147 MEMB     114      OSM      C17S     CTL2    -0.180000       12.0110           0
     13148 MEMB     114      OSM      H17S     HAL2     0.900000E-01   1.00800           0
     13149 MEMB     114      OSM      H17T     HAL2     0.900000E-01   1.00800           0
     13150 MEMB     114      OSM      C18S     CTL3    -0.270000       12.0110           0
     13151 MEMB     114      OSM      H18S     HAL3     0.900000E-01   1.00800           0
     13152 MEMB     114      OSM      H18T     HAL3     0.900000E-01   1.00800           0
     13153 MEMB     114      OSM      H18U     HAL3     0.900000E-01   1.00800           0
     13154 MEMB     114      OSM      C1F      C        0.550000       12.0110           0
     13155 MEMB     114      OSM      OF       O       -0.600000       15.9994           0
     13156 MEMB     114      OSM      C2F      CTL2    -0.700000E-01   12.0110           0
     13157 MEMB     114      OSM      H2F      HAL2     0.600000E-01   1.00800           0
     13158 MEMB     114      OSM      H2G      HAL2     0.600000E-01   1.00800           0
     13159 MEMB     114      OSM      C3F      CTL2    -0.180000       12.0110           0
     13160 MEMB     114      OSM      H3F      HAL2     0.900000E-01   1.00800           0
     13161 MEMB     114      OSM      H3G      HAL2     0.900000E-01   1.00800           0
     13162 MEMB     114      OSM      C4F      CTL2    -0.180000       12.0110           0
     13163 MEMB     114      OSM      H4F      HAL2     0.900000E-01   1.00800           0
     13164 MEMB     114      OSM      H4G      HAL2     0.900000E-01   1.00800           0
     13165 MEMB     114      OSM      C5F      CTL2    -0.180000       12.0110           0
     13166 MEMB     114      OSM      H5F      HAL2     0.900000E-01   1.00800           0
     13167 MEMB     114      OSM      H5G      HAL2     0.900000E-01   1.00800           0
     13168 MEMB     114      OSM      C6F      CTL2    -0.180000       12.0110           0
     13169 MEMB     114      OSM      H6F      HAL2     0.900000E-01   1.00800           0
     13170 MEMB     114      OSM      H6G      HAL2     0.900000E-01   1.00800           0
     13171 MEMB     114      OSM      C7F      CTL2    -0.180000       12.0110           0
     13172 MEMB     114      OSM      H7F      HAL2     0.900000E-01   1.00800           0
     13173 MEMB     114      OSM      H7G      HAL2     0.900000E-01   1.00800           0
     13174 MEMB     114      OSM      C8F      CTL2    -0.180000       12.0110           0
     13175 MEMB     114      OSM      H8F      HAL2     0.900000E-01   1.00800           0
     13176 MEMB     114      OSM      H8G      HAL2     0.900000E-01   1.00800           0
     13177 MEMB     114      OSM      C9F      CEL1    -0.150000       12.0110           0
     13178 MEMB     114      OSM      H9F      HEL1     0.150000       1.00800           0
     13179 MEMB     114      OSM      C10F     CEL1    -0.150000       12.0110           0
     13180 MEMB     114      OSM      H10F     HEL1     0.150000       1.00800           0
     13181 MEMB     114      OSM      C11F     CTL2    -0.180000       12.0110           0
     13182 MEMB     114      OSM      H11F     HAL2     0.900000E-01   1.00800           0
     13183 MEMB     114      OSM      H11G     HAL2     0.900000E-01   1.00800           0
     13184 MEMB     114      OSM      C12F     CTL2    -0.180000       12.0110           0
     13185 MEMB     114      OSM      H12F     HAL2     0.900000E-01   1.00800           0
     13186 MEMB     114      OSM      H12G     HAL2     0.900000E-01   1.00800           0
     13187 MEMB     114      OSM      C13F     CTL2    -0.180000       12.0110           0
     13188 MEMB     114      OSM      H13F     HAL2     0.900000E-01   1.00800           0
     13189 MEMB     114      OSM      H13G     HAL2     0.900000E-01   1.00800           0
     13190 MEMB     114      OSM      C14F     CTL2    -0.180000       12.0110           0
     13191 MEMB     114      OSM      H14F     HAL2     0.900000E-01   1.00800           0
     13192 MEMB     114      OSM      H14G     HAL2     0.900000E-01   1.00800           0
     13193 MEMB     114      OSM      C15F     CTL2    -0.180000       12.0110           0
     13194 MEMB     114      OSM      H15F     HAL2     0.900000E-01   1.00800           0
     13195 MEMB     114      OSM      H15G     HAL2     0.900000E-01   1.00800           0
     13196 MEMB     114      OSM      C16F     CTL2    -0.180000       12.0110           0
     13197 MEMB     114      OSM      H16F     HAL2     0.900000E-01   1.00800           0
     13198 MEMB     114      OSM      H16G     HAL2     0.900000E-01   1.00800           0
     13199 MEMB     114      OSM      C17F     CTL2    -0.180000       12.0110           0
     13200 MEMB     114      OSM      H17F     HAL2     0.900000E-01   1.00800           0
     13201 MEMB     114      OSM      H17G     HAL2     0.900000E-01   1.00800           0
     13202 MEMB     114      OSM      C18F     CTL3    -0.270000       12.0110           0
     13203 MEMB     114      OSM      H18F     HAL3     0.900000E-01   1.00800           0
     13204 MEMB     114      OSM      H18G     HAL3     0.900000E-01   1.00800           0
     13205 MEMB     114      OSM      H18H     HAL3     0.900000E-01   1.00800           0
     13206 MEMB     115      CHL1     C3       CRL1     0.140000       12.0110           0
     13207 MEMB     115      CHL1     H3       HGA1     0.900000E-01   1.00800           0
     13208 MEMB     115      CHL1     O3       OHL     -0.660000       15.9994           0
     13209 MEMB     115      CHL1     H3'      HOL      0.430000       1.00800           0
     13210 MEMB     115      CHL1     C4       CRL2    -0.180000       12.0110           0
     13211 MEMB     115      CHL1     H4A      HGA2     0.900000E-01   1.00800           0
     13212 MEMB     115      CHL1     H4B      HGA2     0.900000E-01   1.00800           0
     13213 MEMB     115      CHL1     C5       CEL1      0.00000       12.0110           0
     13214 MEMB     115      CHL1     C6       CEL1    -0.150000       12.0110           0
     13215 MEMB     115      CHL1     H6       HEL1     0.150000       1.00800           0
     13216 MEMB     115      CHL1     C7       CRL2    -0.180000       12.0110           0
     13217 MEMB     115      CHL1     H7A      HGA2     0.900000E-01   1.00800           0
     13218 MEMB     115      CHL1     H7B      HGA2     0.900000E-01   1.00800           0
     13219 MEMB     115      CHL1     C8       CRL1    -0.900000E-01   12.0110           0
     13220 MEMB     115      CHL1     H8       HGA1     0.900000E-01   1.00800           0
     13221 MEMB     115      CHL1     C14      CRL1    -0.900000E-01   12.0110           0
     13222 MEMB     115      CHL1     H14      HGA1     0.900000E-01   1.00800           0
     13223 MEMB     115      CHL1     C15      CRL2    -0.180000       12.0110           0
     13224 MEMB     115      CHL1     H15A     HGA2     0.900000E-01   1.00800           0
     13225 MEMB     115      CHL1     H15B     HGA2     0.900000E-01   1.00800           0
     13226 MEMB     115      CHL1     C16      CRL2    -0.180000       12.0110           0
     13227 MEMB     115      CHL1     H16A     HGA2     0.900000E-01   1.00800           0
     13228 MEMB     115      CHL1     H16B     HGA2     0.900000E-01   1.00800           0
     13229 MEMB     115      CHL1     C17      CRL1    -0.900000E-01   12.0110           0
     13230 MEMB     115      CHL1     H17      HGA1     0.900000E-01   1.00800           0
     13231 MEMB     115      CHL1     C13      CRL1      0.00000       12.0110           0
     13232 MEMB     115      CHL1     C18      CTL3    -0.270000       12.0110           0
     13233 MEMB     115      CHL1     H18A     HAL3     0.900000E-01   1.00800           0
     13234 MEMB     115      CHL1     H18B     HAL3     0.900000E-01   1.00800           0
     13235 MEMB     115      CHL1     H18C     HAL3     0.900000E-01   1.00800           0
     13236 MEMB     115      CHL1     C12      CRL2    -0.180000       12.0110           0
     13237 MEMB     115      CHL1     H12A     HGA2     0.900000E-01   1.00800           0
     13238 MEMB     115      CHL1     H12B     HGA2     0.900000E-01   1.00800           0
     13239 MEMB     115      CHL1     C11      CRL2    -0.180000       12.0110           0
     13240 MEMB     115      CHL1     H11A     HGA2     0.900000E-01   1.00800           0
     13241 MEMB     115      CHL1     H11B     HGA2     0.900000E-01   1.00800           0
     13242 MEMB     115      CHL1     C9       CRL1    -0.900000E-01   12.0110           0
     13243 MEMB     115      CHL1     H9       HGA1     0.900000E-01   1.00800           0
     13244 MEMB     115      CHL1     C10      CRL1      0.00000       12.0110           0
     13245 MEMB     115      CHL1     C19      CTL3    -0.270000       12.0110           0
     13246 MEMB     115      CHL1     H19A     HAL3     0.900000E-01   1.00800           0
     13247 MEMB     115      CHL1     H19B     HAL3     0.900000E-01   1.00800           0
     13248 MEMB     115      CHL1     H19C     HAL3     0.900000E-01   1.00800           0
     13249 MEMB     115      CHL1     C1       CRL2    -0.180000       12.0110           0
     13250 MEMB     115      CHL1     H1A      HGA2     0.900000E-01   1.00800           0
     13251 MEMB     115      CHL1     H1B      HGA2     0.900000E-01   1.00800           0
     13252 MEMB     115      CHL1     C2       CRL2    -0.180000       12.0110           0
     13253 MEMB     115      CHL1     H2A      HGA2     0.900000E-01   1.00800           0
     13254 MEMB     115      CHL1     H2B      HGA2     0.900000E-01   1.00800           0
     13255 MEMB     115      CHL1     C20      CTL1    -0.900000E-01   12.0110           0
     13256 MEMB     115      CHL1     H20      HAL1     0.900000E-01   1.00800           0
     13257 MEMB     115      CHL1     C21      CTL3    -0.270000       12.0110           0
     13258 MEMB     115      CHL1     H21A     HAL3     0.900000E-01   1.00800           0
     13259 MEMB     115      CHL1     H21B     HAL3     0.900000E-01   1.00800           0
     13260 MEMB     115      CHL1     H21C     HAL3     0.900000E-01   1.00800           0
     13261 MEMB     115      CHL1     C22      CTL2    -0.180000       12.0110           0
     13262 MEMB     115      CHL1     H22A     HAL2     0.900000E-01   1.00800           0
     13263 MEMB     115      CHL1     H22B     HAL2     0.900000E-01   1.00800           0
     13264 MEMB     115      CHL1     C23      CTL2    -0.180000       12.0110           0
     13265 MEMB     115      CHL1     H23A     HAL2     0.900000E-01   1.00800           0
     13266 MEMB     115      CHL1     H23B     HAL2     0.900000E-01   1.00800           0
     13267 MEMB     115      CHL1     C24      CTL2    -0.180000       12.0110           0
     13268 MEMB     115      CHL1     H24A     HAL2     0.900000E-01   1.00800           0
     13269 MEMB     115      CHL1     H24B     HAL2     0.900000E-01   1.00800           0
     13270 MEMB     115      CHL1     C25      CTL1    -0.900000E-01   12.0110           0
     13271 MEMB     115      CHL1     H25      HAL1     0.900000E-01   1.00800           0
     13272 MEMB     115      CHL1     C26      CTL3    -0.270000       12.0110           0
     13273 MEMB     115      CHL1     H26A     HAL3     0.900000E-01   1.00800           0
     13274 MEMB     115      CHL1     H26B     HAL3     0.900000E-01   1.00800           0
     13275 MEMB     115      CHL1     H26C     HAL3     0.900000E-01   1.00800           0
     13276 MEMB     115      CHL1     C27      CTL3    -0.270000       12.0110           0
     13277 MEMB     115      CHL1     H27A     HAL3     0.900000E-01   1.00800           0
     13278 MEMB     115      CHL1     H27B     HAL3     0.900000E-01   1.00800           0
     13279 MEMB     115      CHL1     H27C     HAL3     0.900000E-01   1.00800           0
     13280 MEMB     116      OSM      N        NTL     -0.600000       14.0070           0
     13281 MEMB     116      OSM      C15      CTL5    -0.350000       12.0110           0
     13282 MEMB     116      OSM      H15A     HL       0.250000       1.00800           0
     13283 MEMB     116      OSM      H15B     HL       0.250000       1.00800           0
     13284 MEMB     116      OSM      H15C     HL       0.250000       1.00800           0
     13285 MEMB     116      OSM      C14      CTL5    -0.350000       12.0110           0
     13286 MEMB     116      OSM      H14A     HL       0.250000       1.00800           0
     13287 MEMB     116      OSM      H14B     HL       0.250000       1.00800           0
     13288 MEMB     116      OSM      H14C     HL       0.250000       1.00800           0
     13289 MEMB     116      OSM      C13      CTL5    -0.350000       12.0110           0
     13290 MEMB     116      OSM      H13A     HL       0.250000       1.00800           0
     13291 MEMB     116      OSM      H13B     HL       0.250000       1.00800           0
     13292 MEMB     116      OSM      H13C     HL       0.250000       1.00800           0
     13293 MEMB     116      OSM      C12      CTL2    -0.100000       12.0110           0
     13294 MEMB     116      OSM      H12A     HL       0.250000       1.00800           0
     13295 MEMB     116      OSM      H12B     HL       0.250000       1.00800           0
     13296 MEMB     116      OSM      C11      CTL2    -0.800000E-01   12.0110           0
     13297 MEMB     116      OSM      H11A     HAL2     0.900000E-01   1.00800           0
     13298 MEMB     116      OSM      H11B     HAL2     0.900000E-01   1.00800           0
     13299 MEMB     116      OSM      P        PL        1.50000       30.9740           0
     13300 MEMB     116      OSM      O13      O2L     -0.780000       15.9994           0
     13301 MEMB     116      OSM      O14      O2L     -0.780000       15.9994           0
     13302 MEMB     116      OSM      O11      OSLP    -0.570000       15.9994           0
     13303 MEMB     116      OSM      O12      OSLP    -0.570000       15.9994           0
     13304 MEMB     116      OSM      C1S      CTL2    -0.800000E-01   12.0110           0
     13305 MEMB     116      OSM      H1S      HAL2     0.900000E-01   1.00800           0
     13306 MEMB     116      OSM      H1T      HAL2     0.900000E-01   1.00800           0
     13307 MEMB     116      OSM      NF       NHL     -0.700000       14.0070           0
     13308 MEMB     116      OSM      HNF      H        0.350000       1.00800           0
     13309 MEMB     116      OSM      C2S      CTL1     0.300000       12.0110           0
     13310 MEMB     116      OSM      H2S      HAL1     0.500000E-01   1.00800           0
     13311 MEMB     116      OSM      C3S      CTO1     0.500000       12.0110           0
     13312 MEMB     116      OSM      H3S      HAL1    -0.110000       1.00800           0
     13313 MEMB     116      OSM      O3       OHL     -0.690000       15.9994           0
     13314 MEMB     116      OSM      HO3      HOL      0.300000       1.00800           0
     13315 MEMB     116      OSM      C4S      CEL3    -0.150000       12.0110           0
     13316 MEMB     116      OSM      H4S      HEL1     0.150000       1.00800           0
     13317 MEMB     116      OSM      C5S      CEL3    -0.150000       12.0110           0
     13318 MEMB     116      OSM      H5S      HEL1     0.150000       1.00800           0
     13319 MEMB     116      OSM      C6S      CTL2    -0.180000       12.0110           0
     13320 MEMB     116      OSM      H6S      HAL2     0.900000E-01   1.00800           0
     13321 MEMB     116      OSM      H6T      HAL2     0.900000E-01   1.00800           0
     13322 MEMB     116      OSM      C7S      CTL2    -0.180000       12.0110           0
     13323 MEMB     116      OSM      H7S      HAL2     0.900000E-01   1.00800           0
     13324 MEMB     116      OSM      H7T      HAL2     0.900000E-01   1.00800           0
     13325 MEMB     116      OSM      C8S      CTL2    -0.180000       12.0110           0
     13326 MEMB     116      OSM      H8S      HAL2     0.900000E-01   1.00800           0
     13327 MEMB     116      OSM      H8T      HAL2     0.900000E-01   1.00800           0
     13328 MEMB     116      OSM      C9S      CTL2    -0.180000       12.0110           0
     13329 MEMB     116      OSM      H9S      HAL2     0.900000E-01   1.00800           0
     13330 MEMB     116      OSM      H9T      HAL2     0.900000E-01   1.00800           0
     13331 MEMB     116      OSM      C10S     CTL2    -0.180000       12.0110           0
     13332 MEMB     116      OSM      H10S     HAL2     0.900000E-01   1.00800           0
     13333 MEMB     116      OSM      H10T     HAL2     0.900000E-01   1.00800           0
     13334 MEMB     116      OSM      C11S     CTL2    -0.180000       12.0110           0
     13335 MEMB     116      OSM      H11S     HAL2     0.900000E-01   1.00800           0
     13336 MEMB     116      OSM      H11T     HAL2     0.900000E-01   1.00800           0
     13337 MEMB     116      OSM      C12S     CTL2    -0.180000       12.0110           0
     13338 MEMB     116      OSM      H12S     HAL2     0.900000E-01   1.00800           0
     13339 MEMB     116      OSM      H12T     HAL2     0.900000E-01   1.00800           0
     13340 MEMB     116      OSM      C13S     CTL2    -0.180000       12.0110           0
     13341 MEMB     116      OSM      H13S     HAL2     0.900000E-01   1.00800           0
     13342 MEMB     116      OSM      H13T     HAL2     0.900000E-01   1.00800           0
     13343 MEMB     116      OSM      C14S     CTL2    -0.180000       12.0110           0
     13344 MEMB     116      OSM      H14S     HAL2     0.900000E-01   1.00800           0
     13345 MEMB     116      OSM      H14T     HAL2     0.900000E-01   1.00800           0
     13346 MEMB     116      OSM      C15S     CTL2    -0.180000       12.0110           0
     13347 MEMB     116      OSM      H15S     HAL2     0.900000E-01   1.00800           0
     13348 MEMB     116      OSM      H15T     HAL2     0.900000E-01   1.00800           0
     13349 MEMB     116      OSM      C16S     CTL2    -0.180000       12.0110           0
     13350 MEMB     116      OSM      H16S     HAL2     0.900000E-01   1.00800           0
     13351 MEMB     116      OSM      H16T     HAL2     0.900000E-01   1.00800           0
     13352 MEMB     116      OSM      C17S     CTL2    -0.180000       12.0110           0
     13353 MEMB     116      OSM      H17S     HAL2     0.900000E-01   1.00800           0
     13354 MEMB     116      OSM      H17T     HAL2     0.900000E-01   1.00800           0
     13355 MEMB     116      OSM      C18S     CTL3    -0.270000       12.0110           0
     13356 MEMB     116      OSM      H18S     HAL3     0.900000E-01   1.00800           0
     13357 MEMB     116      OSM      H18T     HAL3     0.900000E-01   1.00800           0
     13358 MEMB     116      OSM      H18U     HAL3     0.900000E-01   1.00800           0
     13359 MEMB     116      OSM      C1F      C        0.550000       12.0110           0
     13360 MEMB     116      OSM      OF       O       -0.600000       15.9994           0
     13361 MEMB     116      OSM      C2F      CTL2    -0.700000E-01   12.0110           0
     13362 MEMB     116      OSM      H2F      HAL2     0.600000E-01   1.00800           0
     13363 MEMB     116      OSM      H2G      HAL2     0.600000E-01   1.00800           0
     13364 MEMB     116      OSM      C3F      CTL2    -0.180000       12.0110           0
     13365 MEMB     116      OSM      H3F      HAL2     0.900000E-01   1.00800           0
     13366 MEMB     116      OSM      H3G      HAL2     0.900000E-01   1.00800           0
     13367 MEMB     116      OSM      C4F      CTL2    -0.180000       12.0110           0
     13368 MEMB     116      OSM      H4F      HAL2     0.900000E-01   1.00800           0
     13369 MEMB     116      OSM      H4G      HAL2     0.900000E-01   1.00800           0
     13370 MEMB     116      OSM      C5F      CTL2    -0.180000       12.0110           0
     13371 MEMB     116      OSM      H5F      HAL2     0.900000E-01   1.00800           0
     13372 MEMB     116      OSM      H5G      HAL2     0.900000E-01   1.00800           0
     13373 MEMB     116      OSM      C6F      CTL2    -0.180000       12.0110           0
     13374 MEMB     116      OSM      H6F      HAL2     0.900000E-01   1.00800           0
     13375 MEMB     116      OSM      H6G      HAL2     0.900000E-01   1.00800           0
     13376 MEMB     116      OSM      C7F      CTL2    -0.180000       12.0110           0
     13377 MEMB     116      OSM      H7F      HAL2     0.900000E-01   1.00800           0
     13378 MEMB     116      OSM      H7G      HAL2     0.900000E-01   1.00800           0
     13379 MEMB     116      OSM      C8F      CTL2    -0.180000       12.0110           0
     13380 MEMB     116      OSM      H8F      HAL2     0.900000E-01   1.00800           0
     13381 MEMB     116      OSM      H8G      HAL2     0.900000E-01   1.00800           0
     13382 MEMB     116      OSM      C9F      CEL1    -0.150000       12.0110           0
     13383 MEMB     116      OSM      H9F      HEL1     0.150000       1.00800           0
     13384 MEMB     116      OSM      C10F     CEL1    -0.150000       12.0110           0
     13385 MEMB     116      OSM      H10F     HEL1     0.150000       1.00800           0
     13386 MEMB     116      OSM      C11F     CTL2    -0.180000       12.0110           0
     13387 MEMB     116      OSM      H11F     HAL2     0.900000E-01   1.00800           0
     13388 MEMB     116      OSM      H11G     HAL2     0.900000E-01   1.00800           0
     13389 MEMB     116      OSM      C12F     CTL2    -0.180000       12.0110           0
     13390 MEMB     116      OSM      H12F     HAL2     0.900000E-01   1.00800           0
     13391 MEMB     116      OSM      H12G     HAL2     0.900000E-01   1.00800           0
     13392 MEMB     116      OSM      C13F     CTL2    -0.180000       12.0110           0
     13393 MEMB     116      OSM      H13F     HAL2     0.900000E-01   1.00800           0
     13394 MEMB     116      OSM      H13G     HAL2     0.900000E-01   1.00800           0
     13395 MEMB     116      OSM      C14F     CTL2    -0.180000       12.0110           0
     13396 MEMB     116      OSM      H14F     HAL2     0.900000E-01   1.00800           0
     13397 MEMB     116      OSM      H14G     HAL2     0.900000E-01   1.00800           0
     13398 MEMB     116      OSM      C15F     CTL2    -0.180000       12.0110           0
     13399 MEMB     116      OSM      H15F     HAL2     0.900000E-01   1.00800           0
     13400 MEMB     116      OSM      H15G     HAL2     0.900000E-01   1.00800           0
     13401 MEMB     116      OSM      C16F     CTL2    -0.180000       12.0110           0
     13402 MEMB     116      OSM      H16F     HAL2     0.900000E-01   1.00800           0
     13403 MEMB     116      OSM      H16G     HAL2     0.900000E-01   1.00800           0
     13404 MEMB     116      OSM      C17F     CTL2    -0.180000       12.0110           0
     13405 MEMB     116      OSM      H17F     HAL2     0.900000E-01   1.00800           0
     13406 MEMB     116      OSM      H17G     HAL2     0.900000E-01   1.00800           0
     13407 MEMB     116      OSM      C18F     CTL3    -0.270000       12.0110           0
     13408 MEMB     116      OSM      H18F     HAL3     0.900000E-01   1.00800           0
     13409 MEMB     116      OSM      H18G     HAL3     0.900000E-01   1.00800           0
     13410 MEMB     116      OSM      H18H     HAL3     0.900000E-01   1.00800           0
     13411 MEMB     117      CHL1     C3       CRL1     0.140000       12.0110           0
     13412 MEMB     117      CHL1     H3       HGA1     0.900000E-01   1.00800           0
     13413 MEMB     117      CHL1     O3       OHL     -0.660000       15.9994           0
     13414 MEMB     117      CHL1     H3'      HOL      0.430000       1.00800           0
     13415 MEMB     117      CHL1     C4       CRL2    -0.180000       12.0110           0
     13416 MEMB     117      CHL1     H4A      HGA2     0.900000E-01   1.00800           0
     13417 MEMB     117      CHL1     H4B      HGA2     0.900000E-01   1.00800           0
     13418 MEMB     117      CHL1     C5       CEL1      0.00000       12.0110           0
     13419 MEMB     117      CHL1     C6       CEL1    -0.150000       12.0110           0
     13420 MEMB     117      CHL1     H6       HEL1     0.150000       1.00800           0
     13421 MEMB     117      CHL1     C7       CRL2    -0.180000       12.0110           0
     13422 MEMB     117      CHL1     H7A      HGA2     0.900000E-01   1.00800           0
     13423 MEMB     117      CHL1     H7B      HGA2     0.900000E-01   1.00800           0
     13424 MEMB     117      CHL1     C8       CRL1    -0.900000E-01   12.0110           0
     13425 MEMB     117      CHL1     H8       HGA1     0.900000E-01   1.00800           0
     13426 MEMB     117      CHL1     C14      CRL1    -0.900000E-01   12.0110           0
     13427 MEMB     117      CHL1     H14      HGA1     0.900000E-01   1.00800           0
     13428 MEMB     117      CHL1     C15      CRL2    -0.180000       12.0110           0
     13429 MEMB     117      CHL1     H15A     HGA2     0.900000E-01   1.00800           0
     13430 MEMB     117      CHL1     H15B     HGA2     0.900000E-01   1.00800           0
     13431 MEMB     117      CHL1     C16      CRL2    -0.180000       12.0110           0
     13432 MEMB     117      CHL1     H16A     HGA2     0.900000E-01   1.00800           0
     13433 MEMB     117      CHL1     H16B     HGA2     0.900000E-01   1.00800           0
     13434 MEMB     117      CHL1     C17      CRL1    -0.900000E-01   12.0110           0
     13435 MEMB     117      CHL1     H17      HGA1     0.900000E-01   1.00800           0
     13436 MEMB     117      CHL1     C13      CRL1      0.00000       12.0110           0
     13437 MEMB     117      CHL1     C18      CTL3    -0.270000       12.0110           0
     13438 MEMB     117      CHL1     H18A     HAL3     0.900000E-01   1.00800           0
     13439 MEMB     117      CHL1     H18B     HAL3     0.900000E-01   1.00800           0
     13440 MEMB     117      CHL1     H18C     HAL3     0.900000E-01   1.00800           0
     13441 MEMB     117      CHL1     C12      CRL2    -0.180000       12.0110           0
     13442 MEMB     117      CHL1     H12A     HGA2     0.900000E-01   1.00800           0
     13443 MEMB     117      CHL1     H12B     HGA2     0.900000E-01   1.00800           0
     13444 MEMB     117      CHL1     C11      CRL2    -0.180000       12.0110           0
     13445 MEMB     117      CHL1     H11A     HGA2     0.900000E-01   1.00800           0
     13446 MEMB     117      CHL1     H11B     HGA2     0.900000E-01   1.00800           0
     13447 MEMB     117      CHL1     C9       CRL1    -0.900000E-01   12.0110           0
     13448 MEMB     117      CHL1     H9       HGA1     0.900000E-01   1.00800           0
     13449 MEMB     117      CHL1     C10      CRL1      0.00000       12.0110           0
     13450 MEMB     117      CHL1     C19      CTL3    -0.270000       12.0110           0
     13451 MEMB     117      CHL1     H19A     HAL3     0.900000E-01   1.00800           0
     13452 MEMB     117      CHL1     H19B     HAL3     0.900000E-01   1.00800           0
     13453 MEMB     117      CHL1     H19C     HAL3     0.900000E-01   1.00800           0
     13454 MEMB     117      CHL1     C1       CRL2    -0.180000       12.0110           0
     13455 MEMB     117      CHL1     H1A      HGA2     0.900000E-01   1.00800           0
     13456 MEMB     117      CHL1     H1B      HGA2     0.900000E-01   1.00800           0
     13457 MEMB     117      CHL1     C2       CRL2    -0.180000       12.0110           0
     13458 MEMB     117      CHL1     H2A      HGA2     0.900000E-01   1.00800           0
     13459 MEMB     117      CHL1     H2B      HGA2     0.900000E-01   1.00800           0
     13460 MEMB     117      CHL1     C20      CTL1    -0.900000E-01   12.0110           0
     13461 MEMB     117      CHL1     H20      HAL1     0.900000E-01   1.00800           0
     13462 MEMB     117      CHL1     C21      CTL3    -0.270000       12.0110           0
     13463 MEMB     117      CHL1     H21A     HAL3     0.900000E-01   1.00800           0
     13464 MEMB     117      CHL1     H21B     HAL3     0.900000E-01   1.00800           0
     13465 MEMB     117      CHL1     H21C     HAL3     0.900000E-01   1.00800           0
     13466 MEMB     117      CHL1     C22      CTL2    -0.180000       12.0110           0
     13467 MEMB     117      CHL1     H22A     HAL2     0.900000E-01   1.00800           0
     13468 MEMB     117      CHL1     H22B     HAL2     0.900000E-01   1.00800           0
     13469 MEMB     117      CHL1     C23      CTL2    -0.180000       12.0110           0
     13470 MEMB     117      CHL1     H23A     HAL2     0.900000E-01   1.00800           0
     13471 MEMB     117      CHL1     H23B     HAL2     0.900000E-01   1.00800           0
     13472 MEMB     117      CHL1     C24      CTL2    -0.180000       12.0110           0
     13473 MEMB     117      CHL1     H24A     HAL2     0.900000E-01   1.00800           0
     13474 MEMB     117      CHL1     H24B     HAL2     0.900000E-01   1.00800           0
     13475 MEMB     117      CHL1     C25      CTL1    -0.900000E-01   12.0110           0
     13476 MEMB     117      CHL1     H25      HAL1     0.900000E-01   1.00800           0
     13477 MEMB     117      CHL1     C26      CTL3    -0.270000       12.0110           0
     13478 MEMB     117      CHL1     H26A     HAL3     0.900000E-01   1.00800           0
     13479 MEMB     117      CHL1     H26B     HAL3     0.900000E-01   1.00800           0
     13480 MEMB     117      CHL1     H26C     HAL3     0.900000E-01   1.00800           0
     13481 MEMB     117      CHL1     C27      CTL3    -0.270000       12.0110           0
     13482 MEMB     117      CHL1     H27A     HAL3     0.900000E-01   1.00800           0
     13483 MEMB     117      CHL1     H27B     HAL3     0.900000E-01   1.00800           0
     13484 MEMB     117      CHL1     H27C     HAL3     0.900000E-01   1.00800           0
     13485 MEMB     118      CHL1     C3       CRL1     0.140000       12.0110           0
     13486 MEMB     118      CHL1     H3       HGA1     0.900000E-01   1.00800           0
     13487 MEMB     118      CHL1     O3       OHL     -0.660000       15.9994           0
     13488 MEMB     118      CHL1     H3'      HOL      0.430000       1.00800           0
     13489 MEMB     118      CHL1     C4       CRL2    -0.180000       12.0110           0
     13490 MEMB     118      CHL1     H4A      HGA2     0.900000E-01   1.00800           0
     13491 MEMB     118      CHL1     H4B      HGA2     0.900000E-01   1.00800           0
     13492 MEMB     118      CHL1     C5       CEL1      0.00000       12.0110           0
     13493 MEMB     118      CHL1     C6       CEL1    -0.150000       12.0110           0
     13494 MEMB     118      CHL1     H6       HEL1     0.150000       1.00800           0
     13495 MEMB     118      CHL1     C7       CRL2    -0.180000       12.0110           0
     13496 MEMB     118      CHL1     H7A      HGA2     0.900000E-01   1.00800           0
     13497 MEMB     118      CHL1     H7B      HGA2     0.900000E-01   1.00800           0
     13498 MEMB     118      CHL1     C8       CRL1    -0.900000E-01   12.0110           0
     13499 MEMB     118      CHL1     H8       HGA1     0.900000E-01   1.00800           0
     13500 MEMB     118      CHL1     C14      CRL1    -0.900000E-01   12.0110           0
     13501 MEMB     118      CHL1     H14      HGA1     0.900000E-01   1.00800           0
     13502 MEMB     118      CHL1     C15      CRL2    -0.180000       12.0110           0
     13503 MEMB     118      CHL1     H15A     HGA2     0.900000E-01   1.00800           0
     13504 MEMB     118      CHL1     H15B     HGA2     0.900000E-01   1.00800           0
     13505 MEMB     118      CHL1     C16      CRL2    -0.180000       12.0110           0
     13506 MEMB     118      CHL1     H16A     HGA2     0.900000E-01   1.00800           0
     13507 MEMB     118      CHL1     H16B     HGA2     0.900000E-01   1.00800           0
     13508 MEMB     118      CHL1     C17      CRL1    -0.900000E-01   12.0110           0
     13509 MEMB     118      CHL1     H17      HGA1     0.900000E-01   1.00800           0
     13510 MEMB     118      CHL1     C13      CRL1      0.00000       12.0110           0
     13511 MEMB     118      CHL1     C18      CTL3    -0.270000       12.0110           0
     13512 MEMB     118      CHL1     H18A     HAL3     0.900000E-01   1.00800           0
     13513 MEMB     118      CHL1     H18B     HAL3     0.900000E-01   1.00800           0
     13514 MEMB     118      CHL1     H18C     HAL3     0.900000E-01   1.00800           0
     13515 MEMB     118      CHL1     C12      CRL2    -0.180000       12.0110           0
     13516 MEMB     118      CHL1     H12A     HGA2     0.900000E-01   1.00800           0
     13517 MEMB     118      CHL1     H12B     HGA2     0.900000E-01   1.00800           0
     13518 MEMB     118      CHL1     C11      CRL2    -0.180000       12.0110           0
     13519 MEMB     118      CHL1     H11A     HGA2     0.900000E-01   1.00800           0
     13520 MEMB     118      CHL1     H11B     HGA2     0.900000E-01   1.00800           0
     13521 MEMB     118      CHL1     C9       CRL1    -0.900000E-01   12.0110           0
     13522 MEMB     118      CHL1     H9       HGA1     0.900000E-01   1.00800           0
     13523 MEMB     118      CHL1     C10      CRL1      0.00000       12.0110           0
     13524 MEMB     118      CHL1     C19      CTL3    -0.270000       12.0110           0
     13525 MEMB     118      CHL1     H19A     HAL3     0.900000E-01   1.00800           0
     13526 MEMB     118      CHL1     H19B     HAL3     0.900000E-01   1.00800           0
     13527 MEMB     118      CHL1     H19C     HAL3     0.900000E-01   1.00800           0
     13528 MEMB     118      CHL1     C1       CRL2    -0.180000       12.0110           0
     13529 MEMB     118      CHL1     H1A      HGA2     0.900000E-01   1.00800           0
     13530 MEMB     118      CHL1     H1B      HGA2     0.900000E-01   1.00800           0
     13531 MEMB     118      CHL1     C2       CRL2    -0.180000       12.0110           0
     13532 MEMB     118      CHL1     H2A      HGA2     0.900000E-01   1.00800           0
     13533 MEMB     118      CHL1     H2B      HGA2     0.900000E-01   1.00800           0
     13534 MEMB     118      CHL1     C20      CTL1    -0.900000E-01   12.0110           0
     13535 MEMB     118      CHL1     H20      HAL1     0.900000E-01   1.00800           0
     13536 MEMB     118      CHL1     C21      CTL3    -0.270000       12.0110           0
     13537 MEMB     118      CHL1     H21A     HAL3     0.900000E-01   1.00800           0
     13538 MEMB     118      CHL1     H21B     HAL3     0.900000E-01   1.00800           0
     13539 MEMB     118      CHL1     H21C     HAL3     0.900000E-01   1.00800           0
     13540 MEMB     118      CHL1     C22      CTL2    -0.180000       12.0110           0
     13541 MEMB     118      CHL1     H22A     HAL2     0.900000E-01   1.00800           0
     13542 MEMB     118      CHL1     H22B     HAL2     0.900000E-01   1.00800           0
     13543 MEMB     118      CHL1     C23      CTL2    -0.180000       12.0110           0
     13544 MEMB     118      CHL1     H23A     HAL2     0.900000E-01   1.00800           0
     13545 MEMB     118      CHL1     H23B     HAL2     0.900000E-01   1.00800           0
     13546 MEMB     118      CHL1     C24      CTL2    -0.180000       12.0110           0
     13547 MEMB     118      CHL1     H24A     HAL2     0.900000E-01   1.00800           0
     13548 MEMB     118      CHL1     H24B     HAL2     0.900000E-01   1.00800           0
     13549 MEMB     118      CHL1     C25      CTL1    -0.900000E-01   12.0110           0
     13550 MEMB     118      CHL1     H25      HAL1     0.900000E-01   1.00800           0
     13551 MEMB     118      CHL1     C26      CTL3    -0.270000       12.0110           0
     13552 MEMB     118      CHL1     H26A     HAL3     0.900000E-01   1.00800           0
     13553 MEMB     118      CHL1     H26B     HAL3     0.900000E-01   1.00800           0
     13554 MEMB     118      CHL1     H26C     HAL3     0.900000E-01   1.00800           0
     13555 MEMB     118      CHL1     C27      CTL3    -0.270000       12.0110           0
     13556 MEMB     118      CHL1     H27A     HAL3     0.900000E-01   1.00800           0
     13557 MEMB     118      CHL1     H27B     HAL3     0.900000E-01   1.00800           0
     13558 MEMB     118      CHL1     H27C     HAL3     0.900000E-01   1.00800           0
     13559 MEMB     119      SAPC     N        NTL     -0.600000       14.0070           0
     13560 MEMB     119      SAPC     C12      CTL2    -0.100000       12.0110           0
     13561 MEMB     119      SAPC     H12A     HL       0.250000       1.00800           0
     13562 MEMB     119      SAPC     H12B     HL       0.250000       1.00800           0
     13563 MEMB     119      SAPC     C13      CTL5    -0.350000       12.0110           0
     13564 MEMB     119      SAPC     H13A     HL       0.250000       1.00800           0
     13565 MEMB     119      SAPC     H13B     HL       0.250000       1.00800           0
     13566 MEMB     119      SAPC     H13C     HL       0.250000       1.00800           0
     13567 MEMB     119      SAPC     C14      CTL5    -0.350000       12.0110           0
     13568 MEMB     119      SAPC     H14A     HL       0.250000       1.00800           0
     13569 MEMB     119      SAPC     H14B     HL       0.250000       1.00800           0
     13570 MEMB     119      SAPC     H14C     HL       0.250000       1.00800           0
     13571 MEMB     119      SAPC     C15      CTL5    -0.350000       12.0110           0
     13572 MEMB     119      SAPC     H15A     HL       0.250000       1.00800           0
     13573 MEMB     119      SAPC     H15B     HL       0.250000       1.00800           0
     13574 MEMB     119      SAPC     H15C     HL       0.250000       1.00800           0
     13575 MEMB     119      SAPC     C11      CTL2    -0.800000E-01   12.0110           0
     13576 MEMB     119      SAPC     H11A     HAL2     0.900000E-01   1.00800           0
     13577 MEMB     119      SAPC     H11B     HAL2     0.900000E-01   1.00800           0
     13578 MEMB     119      SAPC     P        PL        1.50000       30.9740           0
     13579 MEMB     119      SAPC     O13      O2L     -0.780000       15.9994           0
     13580 MEMB     119      SAPC     O14      O2L     -0.780000       15.9994           0
     13581 MEMB     119      SAPC     O12      OSLP    -0.570000       15.9994           0
     13582 MEMB     119      SAPC     O11      OSLP    -0.570000       15.9994           0
     13583 MEMB     119      SAPC     C1       CTL2    -0.800000E-01   12.0110           0
     13584 MEMB     119      SAPC     HA       HAL2     0.900000E-01   1.00800           0
     13585 MEMB     119      SAPC     HB       HAL2     0.900000E-01   1.00800           0
     13586 MEMB     119      SAPC     C2       CTL1     0.170000       12.0110           0
     13587 MEMB     119      SAPC     HS       HAL1     0.900000E-01   1.00800           0
     13588 MEMB     119      SAPC     O21      OSL     -0.490000       15.9994           0
     13589 MEMB     119      SAPC     C21      CL       0.900000       12.0110           0
     13590 MEMB     119      SAPC     O22      OBL     -0.630000       15.9994           0
     13591 MEMB     119      SAPC     C22      CTL2    -0.220000       12.0110           0
     13592 MEMB     119      SAPC     H2R      HAL2     0.900000E-01   1.00800           0
     13593 MEMB     119      SAPC     H2S      HAL2     0.900000E-01   1.00800           0
     13594 MEMB     119      SAPC     C3       CTL2     0.800000E-01   12.0110           0
     13595 MEMB     119      SAPC     HX       HAL2     0.900000E-01   1.00800           0
     13596 MEMB     119      SAPC     HY       HAL2     0.900000E-01   1.00800           0
     13597 MEMB     119      SAPC     O31      OSL     -0.490000       15.9994           0
     13598 MEMB     119      SAPC     C31      CL       0.900000       12.0110           0
     13599 MEMB     119      SAPC     O32      OBL     -0.630000       15.9994           0
     13600 MEMB     119      SAPC     C32      CTL2    -0.220000       12.0110           0
     13601 MEMB     119      SAPC     H2X      HAL2     0.900000E-01   1.00800           0
     13602 MEMB     119      SAPC     H2Y      HAL2     0.900000E-01   1.00800           0
     13603 MEMB     119      SAPC     C23      CTL2    -0.180000       12.0110           0
     13604 MEMB     119      SAPC     H3R      HAL2     0.900000E-01   1.00800           0
     13605 MEMB     119      SAPC     H3S      HAL2     0.900000E-01   1.00800           0
     13606 MEMB     119      SAPC     C24      CTL2    -0.180000       12.0110           0
     13607 MEMB     119      SAPC     H4R      HAL2     0.900000E-01   1.00800           0
     13608 MEMB     119      SAPC     H4S      HAL2     0.900000E-01   1.00800           0
     13609 MEMB     119      SAPC     C25      CEL1    -0.150000       12.0110           0
     13610 MEMB     119      SAPC     H5R      HEL1     0.150000       1.00800           0
     13611 MEMB     119      SAPC     C26      CEL1    -0.150000       12.0110           0
     13612 MEMB     119      SAPC     H6R      HEL1     0.150000       1.00800           0
     13613 MEMB     119      SAPC     C27      CTL2    -0.180000       12.0110           0
     13614 MEMB     119      SAPC     H7R      HAL2     0.900000E-01   1.00800           0
     13615 MEMB     119      SAPC     H7S      HAL2     0.900000E-01   1.00800           0
     13616 MEMB     119      SAPC     C28      CEL1    -0.150000       12.0110           0
     13617 MEMB     119      SAPC     H8R      HEL1     0.150000       1.00800           0
     13618 MEMB     119      SAPC     C29      CEL1    -0.150000       12.0110           0
     13619 MEMB     119      SAPC     H9R      HEL1     0.150000       1.00800           0
     13620 MEMB     119      SAPC     C210     CTL2    -0.180000       12.0110           0
     13621 MEMB     119      SAPC     H10R     HAL2     0.900000E-01   1.00800           0
     13622 MEMB     119      SAPC     H10S     HAL2     0.900000E-01   1.00800           0
     13623 MEMB     119      SAPC     C211     CEL1    -0.150000       12.0110           0
     13624 MEMB     119      SAPC     H11R     HEL1     0.150000       1.00800           0
     13625 MEMB     119      SAPC     C212     CEL1    -0.150000       12.0110           0
     13626 MEMB     119      SAPC     H12R     HEL1     0.150000       1.00800           0
     13627 MEMB     119      SAPC     C213     CTL2    -0.180000       12.0110           0
     13628 MEMB     119      SAPC     H13R     HAL2     0.900000E-01   1.00800           0
     13629 MEMB     119      SAPC     H13S     HAL2     0.900000E-01   1.00800           0
     13630 MEMB     119      SAPC     C214     CEL1    -0.150000       12.0110           0
     13631 MEMB     119      SAPC     H14R     HEL1     0.150000       1.00800           0
     13632 MEMB     119      SAPC     C215     CEL1    -0.150000       12.0110           0
     13633 MEMB     119      SAPC     H15R     HEL1     0.150000       1.00800           0
     13634 MEMB     119      SAPC     C216     CTL2    -0.180000       12.0110           0
     13635 MEMB     119      SAPC     H16R     HAL2     0.900000E-01   1.00800           0
     13636 MEMB     119      SAPC     H16S     HAL2     0.900000E-01   1.00800           0
     13637 MEMB     119      SAPC     C217     CTL2    -0.180000       12.0110           0
     13638 MEMB     119      SAPC     H17R     HAL2     0.900000E-01   1.00800           0
     13639 MEMB     119      SAPC     H17S     HAL2     0.900000E-01   1.00800           0
     13640 MEMB     119      SAPC     C218     CTL2    -0.270000       12.0110           0
     13641 MEMB     119      SAPC     H18R     HAL2     0.900000E-01   1.00800           0
     13642 MEMB     119      SAPC     H18S     HAL2     0.900000E-01   1.00800           0
     13643 MEMB     119      SAPC     C219     CTL2    -0.180000       12.0110           0
     13644 MEMB     119      SAPC     H19R     HAL2     0.900000E-01   1.00800           0
     13645 MEMB     119      SAPC     H19S     HAL2     0.900000E-01   1.00800           0
     13646 MEMB     119      SAPC     C220     CTL3    -0.180000       12.0110           0
     13647 MEMB     119      SAPC     H20R     HAL3     0.900000E-01   1.00800           0
     13648 MEMB     119      SAPC     H20S     HAL3     0.900000E-01   1.00800           0
     13649 MEMB     119      SAPC     H20T     HAL3     0.900000E-01   1.00800           0
     13650 MEMB     119      SAPC     C33      CTL2    -0.180000       12.0110           0
     13651 MEMB     119      SAPC     H3X      HAL2     0.900000E-01   1.00800           0
     13652 MEMB     119      SAPC     H3Y      HAL2     0.900000E-01   1.00800           0
     13653 MEMB     119      SAPC     C34      CTL2    -0.180000       12.0110           0
     13654 MEMB     119      SAPC     H4X      HAL2     0.900000E-01   1.00800           0
     13655 MEMB     119      SAPC     H4Y      HAL2     0.900000E-01   1.00800           0
     13656 MEMB     119      SAPC     C35      CTL2    -0.180000       12.0110           0
     13657 MEMB     119      SAPC     H5X      HAL2     0.900000E-01   1.00800           0
     13658 MEMB     119      SAPC     H5Y      HAL2     0.900000E-01   1.00800           0
     13659 MEMB     119      SAPC     C36      CTL2    -0.180000       12.0110           0
     13660 MEMB     119      SAPC     H6X      HAL2     0.900000E-01   1.00800           0
     13661 MEMB     119      SAPC     H6Y      HAL2     0.900000E-01   1.00800           0
     13662 MEMB     119      SAPC     C37      CTL2    -0.180000       12.0110           0
     13663 MEMB     119      SAPC     H7X      HAL2     0.900000E-01   1.00800           0
     13664 MEMB     119      SAPC     H7Y      HAL2     0.900000E-01   1.00800           0
     13665 MEMB     119      SAPC     C38      CTL2    -0.180000       12.0110           0
     13666 MEMB     119      SAPC     H8X      HAL2     0.900000E-01   1.00800           0
     13667 MEMB     119      SAPC     H8Y      HAL2     0.900000E-01   1.00800           0
     13668 MEMB     119      SAPC     C39      CTL2    -0.180000       12.0110           0
     13669 MEMB     119      SAPC     H9X      HAL2     0.900000E-01   1.00800           0
     13670 MEMB     119      SAPC     H9Y      HAL2     0.900000E-01   1.00800           0
     13671 MEMB     119      SAPC     C310     CTL2    -0.180000       12.0110           0
     13672 MEMB     119      SAPC     H10X     HAL2     0.900000E-01   1.00800           0
     13673 MEMB     119      SAPC     H10Y     HAL2     0.900000E-01   1.00800           0
     13674 MEMB     119      SAPC     C311     CTL2    -0.180000       12.0110           0
     13675 MEMB     119      SAPC     H11X     HAL2     0.900000E-01   1.00800           0
     13676 MEMB     119      SAPC     H11Y     HAL2     0.900000E-01   1.00800           0
     13677 MEMB     119      SAPC     C312     CTL2    -0.180000       12.0110           0
     13678 MEMB     119      SAPC     H12X     HAL2     0.900000E-01   1.00800           0
     13679 MEMB     119      SAPC     H12Y     HAL2     0.900000E-01   1.00800           0
     13680 MEMB     119      SAPC     C313     CTL2    -0.180000       12.0110           0
     13681 MEMB     119      SAPC     H13X     HAL2     0.900000E-01   1.00800           0
     13682 MEMB     119      SAPC     H13Y     HAL2     0.900000E-01   1.00800           0
     13683 MEMB     119      SAPC     C314     CTL2    -0.180000       12.0110           0
     13684 MEMB     119      SAPC     H14X     HAL2     0.900000E-01   1.00800           0
     13685 MEMB     119      SAPC     H14Y     HAL2     0.900000E-01   1.00800           0
     13686 MEMB     119      SAPC     C315     CTL2    -0.180000       12.0110           0
     13687 MEMB     119      SAPC     H15X     HAL2     0.900000E-01   1.00800           0
     13688 MEMB     119      SAPC     H15Y     HAL2     0.900000E-01   1.00800           0
     13689 MEMB     119      SAPC     C316     CTL2    -0.180000       12.0110           0
     13690 MEMB     119      SAPC     H16X     HAL2     0.900000E-01   1.00800           0
     13691 MEMB     119      SAPC     H16Y     HAL2     0.900000E-01   1.00800           0
     13692 MEMB     119      SAPC     C317     CTL2    -0.180000       12.0110           0
     13693 MEMB     119      SAPC     H17X     HAL2     0.900000E-01   1.00800           0
     13694 MEMB     119      SAPC     H17Y     HAL2     0.900000E-01   1.00800           0
     13695 MEMB     119      SAPC     C318     CTL3    -0.270000       12.0110           0
     13696 MEMB     119      SAPC     H18X     HAL3     0.900000E-01   1.00800           0
     13697 MEMB     119      SAPC     H18Y     HAL3     0.900000E-01   1.00800           0
     13698 MEMB     119      SAPC     H18Z     HAL3     0.900000E-01   1.00800           0
     13699 MEMB     120      CHL1     C3       CRL1     0.140000       12.0110           0
     13700 MEMB     120      CHL1     H3       HGA1     0.900000E-01   1.00800           0
     13701 MEMB     120      CHL1     O3       OHL     -0.660000       15.9994           0
     13702 MEMB     120      CHL1     H3'      HOL      0.430000       1.00800           0
     13703 MEMB     120      CHL1     C4       CRL2    -0.180000       12.0110           0
     13704 MEMB     120      CHL1     H4A      HGA2     0.900000E-01   1.00800           0
     13705 MEMB     120      CHL1     H4B      HGA2     0.900000E-01   1.00800           0
     13706 MEMB     120      CHL1     C5       CEL1      0.00000       12.0110           0
     13707 MEMB     120      CHL1     C6       CEL1    -0.150000       12.0110           0
     13708 MEMB     120      CHL1     H6       HEL1     0.150000       1.00800           0
     13709 MEMB     120      CHL1     C7       CRL2    -0.180000       12.0110           0
     13710 MEMB     120      CHL1     H7A      HGA2     0.900000E-01   1.00800           0
     13711 MEMB     120      CHL1     H7B      HGA2     0.900000E-01   1.00800           0
     13712 MEMB     120      CHL1     C8       CRL1    -0.900000E-01   12.0110           0
     13713 MEMB     120      CHL1     H8       HGA1     0.900000E-01   1.00800           0
     13714 MEMB     120      CHL1     C14      CRL1    -0.900000E-01   12.0110           0
     13715 MEMB     120      CHL1     H14      HGA1     0.900000E-01   1.00800           0
     13716 MEMB     120      CHL1     C15      CRL2    -0.180000       12.0110           0
     13717 MEMB     120      CHL1     H15A     HGA2     0.900000E-01   1.00800           0
     13718 MEMB     120      CHL1     H15B     HGA2     0.900000E-01   1.00800           0
     13719 MEMB     120      CHL1     C16      CRL2    -0.180000       12.0110           0
     13720 MEMB     120      CHL1     H16A     HGA2     0.900000E-01   1.00800           0
     13721 MEMB     120      CHL1     H16B     HGA2     0.900000E-01   1.00800           0
     13722 MEMB     120      CHL1     C17      CRL1    -0.900000E-01   12.0110           0
     13723 MEMB     120      CHL1     H17      HGA1     0.900000E-01   1.00800           0
     13724 MEMB     120      CHL1     C13      CRL1      0.00000       12.0110           0
     13725 MEMB     120      CHL1     C18      CTL3    -0.270000       12.0110           0
     13726 MEMB     120      CHL1     H18A     HAL3     0.900000E-01   1.00800           0
     13727 MEMB     120      CHL1     H18B     HAL3     0.900000E-01   1.00800           0
     13728 MEMB     120      CHL1     H18C     HAL3     0.900000E-01   1.00800           0
     13729 MEMB     120      CHL1     C12      CRL2    -0.180000       12.0110           0
     13730 MEMB     120      CHL1     H12A     HGA2     0.900000E-01   1.00800           0
     13731 MEMB     120      CHL1     H12B     HGA2     0.900000E-01   1.00800           0
     13732 MEMB     120      CHL1     C11      CRL2    -0.180000       12.0110           0
     13733 MEMB     120      CHL1     H11A     HGA2     0.900000E-01   1.00800           0
     13734 MEMB     120      CHL1     H11B     HGA2     0.900000E-01   1.00800           0
     13735 MEMB     120      CHL1     C9       CRL1    -0.900000E-01   12.0110           0
     13736 MEMB     120      CHL1     H9       HGA1     0.900000E-01   1.00800           0
     13737 MEMB     120      CHL1     C10      CRL1      0.00000       12.0110           0
     13738 MEMB     120      CHL1     C19      CTL3    -0.270000       12.0110           0
     13739 MEMB     120      CHL1     H19A     HAL3     0.900000E-01   1.00800           0
     13740 MEMB     120      CHL1     H19B     HAL3     0.900000E-01   1.00800           0
     13741 MEMB     120      CHL1     H19C     HAL3     0.900000E-01   1.00800           0
     13742 MEMB     120      CHL1     C1       CRL2    -0.180000       12.0110           0
     13743 MEMB     120      CHL1     H1A      HGA2     0.900000E-01   1.00800           0
     13744 MEMB     120      CHL1     H1B      HGA2     0.900000E-01   1.00800           0
     13745 MEMB     120      CHL1     C2       CRL2    -0.180000       12.0110           0
     13746 MEMB     120      CHL1     H2A      HGA2     0.900000E-01   1.00800           0
     13747 MEMB     120      CHL1     H2B      HGA2     0.900000E-01   1.00800           0
     13748 MEMB     120      CHL1     C20      CTL1    -0.900000E-01   12.0110           0
     13749 MEMB     120      CHL1     H20      HAL1     0.900000E-01   1.00800           0
     13750 MEMB     120      CHL1     C21      CTL3    -0.270000       12.0110           0
     13751 MEMB     120      CHL1     H21A     HAL3     0.900000E-01   1.00800           0
     13752 MEMB     120      CHL1     H21B     HAL3     0.900000E-01   1.00800           0
     13753 MEMB     120      CHL1     H21C     HAL3     0.900000E-01   1.00800           0
     13754 MEMB     120      CHL1     C22      CTL2    -0.180000       12.0110           0
     13755 MEMB     120      CHL1     H22A     HAL2     0.900000E-01   1.00800           0
     13756 MEMB     120      CHL1     H22B     HAL2     0.900000E-01   1.00800           0
     13757 MEMB     120      CHL1     C23      CTL2    -0.180000       12.0110           0
     13758 MEMB     120      CHL1     H23A     HAL2     0.900000E-01   1.00800           0
     13759 MEMB     120      CHL1     H23B     HAL2     0.900000E-01   1.00800           0
     13760 MEMB     120      CHL1     C24      CTL2    -0.180000       12.0110           0
     13761 MEMB     120      CHL1     H24A     HAL2     0.900000E-01   1.00800           0
     13762 MEMB     120      CHL1     H24B     HAL2     0.900000E-01   1.00800           0
     13763 MEMB     120      CHL1     C25      CTL1    -0.900000E-01   12.0110           0
     13764 MEMB     120      CHL1     H25      HAL1     0.900000E-01   1.00800           0
     13765 MEMB     120      CHL1     C26      CTL3    -0.270000       12.0110           0
     13766 MEMB     120      CHL1     H26A     HAL3     0.900000E-01   1.00800           0
     13767 MEMB     120      CHL1     H26B     HAL3     0.900000E-01   1.00800           0
     13768 MEMB     120      CHL1     H26C     HAL3     0.900000E-01   1.00800           0
     13769 MEMB     120      CHL1     C27      CTL3    -0.270000       12.0110           0
     13770 MEMB     120      CHL1     H27A     HAL3     0.900000E-01   1.00800           0
     13771 MEMB     120      CHL1     H27B     HAL3     0.900000E-01   1.00800           0
     13772 MEMB     120      CHL1     H27C     HAL3     0.900000E-01   1.00800           0
     13773 MEMB     121      SAPC     N        NTL     -0.600000       14.0070           0
     13774 MEMB     121      SAPC     C12      CTL2    -0.100000       12.0110           0
     13775 MEMB     121      SAPC     H12A     HL       0.250000       1.00800           0
     13776 MEMB     121      SAPC     H12B     HL       0.250000       1.00800           0
     13777 MEMB     121      SAPC     C13      CTL5    -0.350000       12.0110           0
     13778 MEMB     121      SAPC     H13A     HL       0.250000       1.00800           0
     13779 MEMB     121      SAPC     H13B     HL       0.250000       1.00800           0
     13780 MEMB     121      SAPC     H13C     HL       0.250000       1.00800           0
     13781 MEMB     121      SAPC     C14      CTL5    -0.350000       12.0110           0
     13782 MEMB     121      SAPC     H14A     HL       0.250000       1.00800           0
     13783 MEMB     121      SAPC     H14B     HL       0.250000       1.00800           0
     13784 MEMB     121      SAPC     H14C     HL       0.250000       1.00800           0
     13785 MEMB     121      SAPC     C15      CTL5    -0.350000       12.0110           0
     13786 MEMB     121      SAPC     H15A     HL       0.250000       1.00800           0
     13787 MEMB     121      SAPC     H15B     HL       0.250000       1.00800           0
     13788 MEMB     121      SAPC     H15C     HL       0.250000       1.00800           0
     13789 MEMB     121      SAPC     C11      CTL2    -0.800000E-01   12.0110           0
     13790 MEMB     121      SAPC     H11A     HAL2     0.900000E-01   1.00800           0
     13791 MEMB     121      SAPC     H11B     HAL2     0.900000E-01   1.00800           0
     13792 MEMB     121      SAPC     P        PL        1.50000       30.9740           0
     13793 MEMB     121      SAPC     O13      O2L     -0.780000       15.9994           0
     13794 MEMB     121      SAPC     O14      O2L     -0.780000       15.9994           0
     13795 MEMB     121      SAPC     O12      OSLP    -0.570000       15.9994           0
     13796 MEMB     121      SAPC     O11      OSLP    -0.570000       15.9994           0
     13797 MEMB     121      SAPC     C1       CTL2    -0.800000E-01   12.0110           0
     13798 MEMB     121      SAPC     HA       HAL2     0.900000E-01   1.00800           0
     13799 MEMB     121      SAPC     HB       HAL2     0.900000E-01   1.00800           0
     13800 MEMB     121      SAPC     C2       CTL1     0.170000       12.0110           0
     13801 MEMB     121      SAPC     HS       HAL1     0.900000E-01   1.00800           0
     13802 MEMB     121      SAPC     O21      OSL     -0.490000       15.9994           0
     13803 MEMB     121      SAPC     C21      CL       0.900000       12.0110           0
     13804 MEMB     121      SAPC     O22      OBL     -0.630000       15.9994           0
     13805 MEMB     121      SAPC     C22      CTL2    -0.220000       12.0110           0
     13806 MEMB     121      SAPC     H2R      HAL2     0.900000E-01   1.00800           0
     13807 MEMB     121      SAPC     H2S      HAL2     0.900000E-01   1.00800           0
     13808 MEMB     121      SAPC     C3       CTL2     0.800000E-01   12.0110           0
     13809 MEMB     121      SAPC     HX       HAL2     0.900000E-01   1.00800           0
     13810 MEMB     121      SAPC     HY       HAL2     0.900000E-01   1.00800           0
     13811 MEMB     121      SAPC     O31      OSL     -0.490000       15.9994           0
     13812 MEMB     121      SAPC     C31      CL       0.900000       12.0110           0
     13813 MEMB     121      SAPC     O32      OBL     -0.630000       15.9994           0
     13814 MEMB     121      SAPC     C32      CTL2    -0.220000       12.0110           0
     13815 MEMB     121      SAPC     H2X      HAL2     0.900000E-01   1.00800           0
     13816 MEMB     121      SAPC     H2Y      HAL2     0.900000E-01   1.00800           0
     13817 MEMB     121      SAPC     C23      CTL2    -0.180000       12.0110           0
     13818 MEMB     121      SAPC     H3R      HAL2     0.900000E-01   1.00800           0
     13819 MEMB     121      SAPC     H3S      HAL2     0.900000E-01   1.00800           0
     13820 MEMB     121      SAPC     C24      CTL2    -0.180000       12.0110           0
     13821 MEMB     121      SAPC     H4R      HAL2     0.900000E-01   1.00800           0
     13822 MEMB     121      SAPC     H4S      HAL2     0.900000E-01   1.00800           0
     13823 MEMB     121      SAPC     C25      CEL1    -0.150000       12.0110           0
     13824 MEMB     121      SAPC     H5R      HEL1     0.150000       1.00800           0
     13825 MEMB     121      SAPC     C26      CEL1    -0.150000       12.0110           0
     13826 MEMB     121      SAPC     H6R      HEL1     0.150000       1.00800           0
     13827 MEMB     121      SAPC     C27      CTL2    -0.180000       12.0110           0
     13828 MEMB     121      SAPC     H7R      HAL2     0.900000E-01   1.00800           0
     13829 MEMB     121      SAPC     H7S      HAL2     0.900000E-01   1.00800           0
     13830 MEMB     121      SAPC     C28      CEL1    -0.150000       12.0110           0
     13831 MEMB     121      SAPC     H8R      HEL1     0.150000       1.00800           0
     13832 MEMB     121      SAPC     C29      CEL1    -0.150000       12.0110           0
     13833 MEMB     121      SAPC     H9R      HEL1     0.150000       1.00800           0
     13834 MEMB     121      SAPC     C210     CTL2    -0.180000       12.0110           0
     13835 MEMB     121      SAPC     H10R     HAL2     0.900000E-01   1.00800           0
     13836 MEMB     121      SAPC     H10S     HAL2     0.900000E-01   1.00800           0
     13837 MEMB     121      SAPC     C211     CEL1    -0.150000       12.0110           0
     13838 MEMB     121      SAPC     H11R     HEL1     0.150000       1.00800           0
     13839 MEMB     121      SAPC     C212     CEL1    -0.150000       12.0110           0
     13840 MEMB     121      SAPC     H12R     HEL1     0.150000       1.00800           0
     13841 MEMB     121      SAPC     C213     CTL2    -0.180000       12.0110           0
     13842 MEMB     121      SAPC     H13R     HAL2     0.900000E-01   1.00800           0
     13843 MEMB     121      SAPC     H13S     HAL2     0.900000E-01   1.00800           0
     13844 MEMB     121      SAPC     C214     CEL1    -0.150000       12.0110           0
     13845 MEMB     121      SAPC     H14R     HEL1     0.150000       1.00800           0
     13846 MEMB     121      SAPC     C215     CEL1    -0.150000       12.0110           0
     13847 MEMB     121      SAPC     H15R     HEL1     0.150000       1.00800           0
     13848 MEMB     121      SAPC     C216     CTL2    -0.180000       12.0110           0
     13849 MEMB     121      SAPC     H16R     HAL2     0.900000E-01   1.00800           0
     13850 MEMB     121      SAPC     H16S     HAL2     0.900000E-01   1.00800           0
     13851 MEMB     121      SAPC     C217     CTL2    -0.180000       12.0110           0
     13852 MEMB     121      SAPC     H17R     HAL2     0.900000E-01   1.00800           0
     13853 MEMB     121      SAPC     H17S     HAL2     0.900000E-01   1.00800           0
     13854 MEMB     121      SAPC     C218     CTL2    -0.270000       12.0110           0
     13855 MEMB     121      SAPC     H18R     HAL2     0.900000E-01   1.00800           0
     13856 MEMB     121      SAPC     H18S     HAL2     0.900000E-01   1.00800           0
     13857 MEMB     121      SAPC     C219     CTL2    -0.180000       12.0110           0
     13858 MEMB     121      SAPC     H19R     HAL2     0.900000E-01   1.00800           0
     13859 MEMB     121      SAPC     H19S     HAL2     0.900000E-01   1.00800           0
     13860 MEMB     121      SAPC     C220     CTL3    -0.180000       12.0110           0
     13861 MEMB     121      SAPC     H20R     HAL3     0.900000E-01   1.00800           0
     13862 MEMB     121      SAPC     H20S     HAL3     0.900000E-01   1.00800           0
     13863 MEMB     121      SAPC     H20T     HAL3     0.900000E-01   1.00800           0
     13864 MEMB     121      SAPC     C33      CTL2    -0.180000       12.0110           0
     13865 MEMB     121      SAPC     H3X      HAL2     0.900000E-01   1.00800           0
     13866 MEMB     121      SAPC     H3Y      HAL2     0.900000E-01   1.00800           0
     13867 MEMB     121      SAPC     C34      CTL2    -0.180000       12.0110           0
     13868 MEMB     121      SAPC     H4X      HAL2     0.900000E-01   1.00800           0
     13869 MEMB     121      SAPC     H4Y      HAL2     0.900000E-01   1.00800           0
     13870 MEMB     121      SAPC     C35      CTL2    -0.180000       12.0110           0
     13871 MEMB     121      SAPC     H5X      HAL2     0.900000E-01   1.00800           0
     13872 MEMB     121      SAPC     H5Y      HAL2     0.900000E-01   1.00800           0
     13873 MEMB     121      SAPC     C36      CTL2    -0.180000       12.0110           0
     13874 MEMB     121      SAPC     H6X      HAL2     0.900000E-01   1.00800           0
     13875 MEMB     121      SAPC     H6Y      HAL2     0.900000E-01   1.00800           0
     13876 MEMB     121      SAPC     C37      CTL2    -0.180000       12.0110           0
     13877 MEMB     121      SAPC     H7X      HAL2     0.900000E-01   1.00800           0
     13878 MEMB     121      SAPC     H7Y      HAL2     0.900000E-01   1.00800           0
     13879 MEMB     121      SAPC     C38      CTL2    -0.180000       12.0110           0
     13880 MEMB     121      SAPC     H8X      HAL2     0.900000E-01   1.00800           0
     13881 MEMB     121      SAPC     H8Y      HAL2     0.900000E-01   1.00800           0
     13882 MEMB     121      SAPC     C39      CTL2    -0.180000       12.0110           0
     13883 MEMB     121      SAPC     H9X      HAL2     0.900000E-01   1.00800           0
     13884 MEMB     121      SAPC     H9Y      HAL2     0.900000E-01   1.00800           0
     13885 MEMB     121      SAPC     C310     CTL2    -0.180000       12.0110           0
     13886 MEMB     121      SAPC     H10X     HAL2     0.900000E-01   1.00800           0
     13887 MEMB     121      SAPC     H10Y     HAL2     0.900000E-01   1.00800           0
     13888 MEMB     121      SAPC     C311     CTL2    -0.180000       12.0110           0
     13889 MEMB     121      SAPC     H11X     HAL2     0.900000E-01   1.00800           0
     13890 MEMB     121      SAPC     H11Y     HAL2     0.900000E-01   1.00800           0
     13891 MEMB     121      SAPC     C312     CTL2    -0.180000       12.0110           0
     13892 MEMB     121      SAPC     H12X     HAL2     0.900000E-01   1.00800           0
     13893 MEMB     121      SAPC     H12Y     HAL2     0.900000E-01   1.00800           0
     13894 MEMB     121      SAPC     C313     CTL2    -0.180000       12.0110           0
     13895 MEMB     121      SAPC     H13X     HAL2     0.900000E-01   1.00800           0
     13896 MEMB     121      SAPC     H13Y     HAL2     0.900000E-01   1.00800           0
     13897 MEMB     121      SAPC     C314     CTL2    -0.180000       12.0110           0
     13898 MEMB     121      SAPC     H14X     HAL2     0.900000E-01   1.00800           0
     13899 MEMB     121      SAPC     H14Y     HAL2     0.900000E-01   1.00800           0
     13900 MEMB     121      SAPC     C315     CTL2    -0.180000       12.0110           0
     13901 MEMB     121      SAPC     H15X     HAL2     0.900000E-01   1.00800           0
     13902 MEMB     121      SAPC     H15Y     HAL2     0.900000E-01   1.00800           0
     13903 MEMB     121      SAPC     C316     CTL2    -0.180000       12.0110           0
     13904 MEMB     121      SAPC     H16X     HAL2     0.900000E-01   1.00800           0
     13905 MEMB     121      SAPC     H16Y     HAL2     0.900000E-01   1.00800           0
     13906 MEMB     121      SAPC     C317     CTL2    -0.180000       12.0110           0
     13907 MEMB     121      SAPC     H17X     HAL2     0.900000E-01   1.00800           0
     13908 MEMB     121      SAPC     H17Y     HAL2     0.900000E-01   1.00800           0
     13909 MEMB     121      SAPC     C318     CTL3    -0.270000       12.0110           0
     13910 MEMB     121      SAPC     H18X     HAL3     0.900000E-01   1.00800           0
     13911 MEMB     121      SAPC     H18Y     HAL3     0.900000E-01   1.00800           0
     13912 MEMB     121      SAPC     H18Z     HAL3     0.900000E-01   1.00800           0
     13913 MEMB     122      SOPE     N        NH3L    -0.300000       14.0070           0
     13914 MEMB     122      SOPE     HN1      HCL      0.330000       1.00800           0
     13915 MEMB     122      SOPE     HN2      HCL      0.330000       1.00800           0
     13916 MEMB     122      SOPE     HN3      HCL      0.330000       1.00800           0
     13917 MEMB     122      SOPE     C12      CTL2     0.130000       12.0110           0
     13918 MEMB     122      SOPE     H12A     HAL2     0.900000E-01   1.00800           0
     13919 MEMB     122      SOPE     H12B     HAL2     0.900000E-01   1.00800           0
     13920 MEMB     122      SOPE     C11      CTL2    -0.800000E-01   12.0110           0
     13921 MEMB     122      SOPE     H11A     HAL2     0.900000E-01   1.00800           0
     13922 MEMB     122      SOPE     H11B     HAL2     0.900000E-01   1.00800           0
     13923 MEMB     122      SOPE     P        PL        1.50000       30.9740           0
     13924 MEMB     122      SOPE     O13      O2L     -0.780000       15.9994           0
     13925 MEMB     122      SOPE     O14      O2L     -0.780000       15.9994           0
     13926 MEMB     122      SOPE     O12      OSLP    -0.570000       15.9994           0
     13927 MEMB     122      SOPE     O11      OSLP    -0.570000       15.9994           0
     13928 MEMB     122      SOPE     C1       CTL2    -0.800000E-01   12.0110           0
     13929 MEMB     122      SOPE     HA       HAL2     0.900000E-01   1.00800           0
     13930 MEMB     122      SOPE     HB       HAL2     0.900000E-01   1.00800           0
     13931 MEMB     122      SOPE     C2       CTL1     0.170000       12.0110           0
     13932 MEMB     122      SOPE     HS       HAL1     0.900000E-01   1.00800           0
     13933 MEMB     122      SOPE     O21      OSL     -0.490000       15.9994           0
     13934 MEMB     122      SOPE     C21      CL       0.900000       12.0110           0
     13935 MEMB     122      SOPE     O22      OBL     -0.630000       15.9994           0
     13936 MEMB     122      SOPE     C22      CTL2    -0.220000       12.0110           0
     13937 MEMB     122      SOPE     H2R      HAL2     0.900000E-01   1.00800           0
     13938 MEMB     122      SOPE     H2S      HAL2     0.900000E-01   1.00800           0
     13939 MEMB     122      SOPE     C3       CTL2     0.800000E-01   12.0110           0
     13940 MEMB     122      SOPE     HX       HAL2     0.900000E-01   1.00800           0
     13941 MEMB     122      SOPE     HY       HAL2     0.900000E-01   1.00800           0
     13942 MEMB     122      SOPE     O31      OSL     -0.490000       15.9994           0
     13943 MEMB     122      SOPE     C31      CL       0.900000       12.0110           0
     13944 MEMB     122      SOPE     O32      OBL     -0.630000       15.9994           0
     13945 MEMB     122      SOPE     C32      CTL2    -0.220000       12.0110           0
     13946 MEMB     122      SOPE     H2X      HAL2     0.900000E-01   1.00800           0
     13947 MEMB     122      SOPE     H2Y      HAL2     0.900000E-01   1.00800           0
     13948 MEMB     122      SOPE     C23      CTL2    -0.180000       12.0110           0
     13949 MEMB     122      SOPE     H3R      HAL2     0.900000E-01   1.00800           0
     13950 MEMB     122      SOPE     H3S      HAL2     0.900000E-01   1.00800           0
     13951 MEMB     122      SOPE     C24      CTL2    -0.180000       12.0110           0
     13952 MEMB     122      SOPE     H4R      HAL2     0.900000E-01   1.00800           0
     13953 MEMB     122      SOPE     H4S      HAL2     0.900000E-01   1.00800           0
     13954 MEMB     122      SOPE     C25      CTL2    -0.180000       12.0110           0
     13955 MEMB     122      SOPE     H5R      HAL2     0.900000E-01   1.00800           0
     13956 MEMB     122      SOPE     H5S      HAL2     0.900000E-01   1.00800           0
     13957 MEMB     122      SOPE     C26      CTL2    -0.180000       12.0110           0
     13958 MEMB     122      SOPE     H6R      HAL2     0.900000E-01   1.00800           0
     13959 MEMB     122      SOPE     H6S      HAL2     0.900000E-01   1.00800           0
     13960 MEMB     122      SOPE     C27      CTL2    -0.180000       12.0110           0
     13961 MEMB     122      SOPE     H7R      HAL2     0.900000E-01   1.00800           0
     13962 MEMB     122      SOPE     H7S      HAL2     0.900000E-01   1.00800           0
     13963 MEMB     122      SOPE     C28      CTL2    -0.180000       12.0110           0
     13964 MEMB     122      SOPE     H8R      HAL2     0.900000E-01   1.00800           0
     13965 MEMB     122      SOPE     H8S      HAL2     0.900000E-01   1.00800           0
     13966 MEMB     122      SOPE     C29      CEL1    -0.150000       12.0110           0
     13967 MEMB     122      SOPE     H91      HEL1     0.150000       1.00800           0
     13968 MEMB     122      SOPE     C210     CEL1    -0.150000       12.0110           0
     13969 MEMB     122      SOPE     H101     HEL1     0.150000       1.00800           0
     13970 MEMB     122      SOPE     C211     CTL2    -0.180000       12.0110           0
     13971 MEMB     122      SOPE     H11R     HAL2     0.900000E-01   1.00800           0
     13972 MEMB     122      SOPE     H11S     HAL2     0.900000E-01   1.00800           0
     13973 MEMB     122      SOPE     C212     CTL2    -0.180000       12.0110           0
     13974 MEMB     122      SOPE     H12R     HAL2     0.900000E-01   1.00800           0
     13975 MEMB     122      SOPE     H12S     HAL2     0.900000E-01   1.00800           0
     13976 MEMB     122      SOPE     C213     CTL2    -0.180000       12.0110           0
     13977 MEMB     122      SOPE     H13R     HAL2     0.900000E-01   1.00800           0
     13978 MEMB     122      SOPE     H13S     HAL2     0.900000E-01   1.00800           0
     13979 MEMB     122      SOPE     C214     CTL2    -0.180000       12.0110           0
     13980 MEMB     122      SOPE     H14R     HAL2     0.900000E-01   1.00800           0
     13981 MEMB     122      SOPE     H14S     HAL2     0.900000E-01   1.00800           0
     13982 MEMB     122      SOPE     C215     CTL2    -0.180000       12.0110           0
     13983 MEMB     122      SOPE     H15R     HAL2     0.900000E-01   1.00800           0
     13984 MEMB     122      SOPE     H15S     HAL2     0.900000E-01   1.00800           0
     13985 MEMB     122      SOPE     C216     CTL2    -0.180000       12.0110           0
     13986 MEMB     122      SOPE     H16R     HAL2     0.900000E-01   1.00800           0
     13987 MEMB     122      SOPE     H16S     HAL2     0.900000E-01   1.00800           0
     13988 MEMB     122      SOPE     C217     CTL2    -0.180000       12.0110           0
     13989 MEMB     122      SOPE     H17R     HAL2     0.900000E-01   1.00800           0
     13990 MEMB     122      SOPE     H17S     HAL2     0.900000E-01   1.00800           0
     13991 MEMB     122      SOPE     C218     CTL3    -0.270000       12.0110           0
     13992 MEMB     122      SOPE     H18R     HAL3     0.900000E-01   1.00800           0
     13993 MEMB     122      SOPE     H18S     HAL3     0.900000E-01   1.00800           0
     13994 MEMB     122      SOPE     H18T     HAL3     0.900000E-01   1.00800           0
     13995 MEMB     122      SOPE     C33      CTL2    -0.180000       12.0110           0
     13996 MEMB     122      SOPE     H3X      HAL2     0.900000E-01   1.00800           0
     13997 MEMB     122      SOPE     H3Y      HAL2     0.900000E-01   1.00800           0
     13998 MEMB     122      SOPE     C34      CTL2    -0.180000       12.0110           0
     13999 MEMB     122      SOPE     H4X      HAL2     0.900000E-01   1.00800           0
     14000 MEMB     122      SOPE     H4Y      HAL2     0.900000E-01   1.00800           0
     14001 MEMB     122      SOPE     C35      CTL2    -0.180000       12.0110           0
     14002 MEMB     122      SOPE     H5X      HAL2     0.900000E-01   1.00800           0
     14003 MEMB     122      SOPE     H5Y      HAL2     0.900000E-01   1.00800           0
     14004 MEMB     122      SOPE     C36      CTL2    -0.180000       12.0110           0
     14005 MEMB     122      SOPE     H6X      HAL2     0.900000E-01   1.00800           0
     14006 MEMB     122      SOPE     H6Y      HAL2     0.900000E-01   1.00800           0
     14007 MEMB     122      SOPE     C37      CTL2    -0.180000       12.0110           0
     14008 MEMB     122      SOPE     H7X      HAL2     0.900000E-01   1.00800           0
     14009 MEMB     122      SOPE     H7Y      HAL2     0.900000E-01   1.00800           0
     14010 MEMB     122      SOPE     C38      CTL2    -0.180000       12.0110           0
     14011 MEMB     122      SOPE     H8X      HAL2     0.900000E-01   1.00800           0
     14012 MEMB     122      SOPE     H8Y      HAL2     0.900000E-01   1.00800           0
     14013 MEMB     122      SOPE     C39      CTL2    -0.180000       12.0110           0
     14014 MEMB     122      SOPE     H9X      HAL2     0.900000E-01   1.00800           0
     14015 MEMB     122      SOPE     H9Y      HAL2     0.900000E-01   1.00800           0
     14016 MEMB     122      SOPE     C310     CTL2    -0.180000       12.0110           0
     14017 MEMB     122      SOPE     H10X     HAL2     0.900000E-01   1.00800           0
     14018 MEMB     122      SOPE     H10Y     HAL2     0.900000E-01   1.00800           0
     14019 MEMB     122      SOPE     C311     CTL2    -0.180000       12.0110           0
     14020 MEMB     122      SOPE     H11X     HAL2     0.900000E-01   1.00800           0
     14021 MEMB     122      SOPE     H11Y     HAL2     0.900000E-01   1.00800           0
     14022 MEMB     122      SOPE     C312     CTL2    -0.180000       12.0110           0
     14023 MEMB     122      SOPE     H12X     HAL2     0.900000E-01   1.00800           0
     14024 MEMB     122      SOPE     H12Y     HAL2     0.900000E-01   1.00800           0
     14025 MEMB     122      SOPE     C313     CTL2    -0.180000       12.0110           0
     14026 MEMB     122      SOPE     H13X     HAL2     0.900000E-01   1.00800           0
     14027 MEMB     122      SOPE     H13Y     HAL2     0.900000E-01   1.00800           0
     14028 MEMB     122      SOPE     C314     CTL2    -0.180000       12.0110           0
     14029 MEMB     122      SOPE     H14X     HAL2     0.900000E-01   1.00800           0
     14030 MEMB     122      SOPE     H14Y     HAL2     0.900000E-01   1.00800           0
     14031 MEMB     122      SOPE     C315     CTL2    -0.180000       12.0110           0
     14032 MEMB     122      SOPE     H15X     HAL2     0.900000E-01   1.00800           0
     14033 MEMB     122      SOPE     H15Y     HAL2     0.900000E-01   1.00800           0
     14034 MEMB     122      SOPE     C316     CTL2    -0.180000       12.0110           0
     14035 MEMB     122      SOPE     H16X     HAL2     0.900000E-01   1.00800           0
     14036 MEMB     122      SOPE     H16Y     HAL2     0.900000E-01   1.00800           0
     14037 MEMB     122      SOPE     C317     CTL2    -0.180000       12.0110           0
     14038 MEMB     122      SOPE     H17X     HAL2     0.900000E-01   1.00800           0
     14039 MEMB     122      SOPE     H17Y     HAL2     0.900000E-01   1.00800           0
     14040 MEMB     122      SOPE     C318     CTL3    -0.270000       12.0110           0
     14041 MEMB     122      SOPE     H18X     HAL3     0.900000E-01   1.00800           0
     14042 MEMB     122      SOPE     H18Y     HAL3     0.900000E-01   1.00800           0
     14043 MEMB     122      SOPE     H18Z     HAL3     0.900000E-01   1.00800           0
     14044 MEMB     123      SOPE     N        NH3L    -0.300000       14.0070           0
     14045 MEMB     123      SOPE     HN1      HCL      0.330000       1.00800           0
     14046 MEMB     123      SOPE     HN2      HCL      0.330000       1.00800           0
     14047 MEMB     123      SOPE     HN3      HCL      0.330000       1.00800           0
     14048 MEMB     123      SOPE     C12      CTL2     0.130000       12.0110           0
     14049 MEMB     123      SOPE     H12A     HAL2     0.900000E-01   1.00800           0
     14050 MEMB     123      SOPE     H12B     HAL2     0.900000E-01   1.00800           0
     14051 MEMB     123      SOPE     C11      CTL2    -0.800000E-01   12.0110           0
     14052 MEMB     123      SOPE     H11A     HAL2     0.900000E-01   1.00800           0
     14053 MEMB     123      SOPE     H11B     HAL2     0.900000E-01   1.00800           0
     14054 MEMB     123      SOPE     P        PL        1.50000       30.9740           0
     14055 MEMB     123      SOPE     O13      O2L     -0.780000       15.9994           0
     14056 MEMB     123      SOPE     O14      O2L     -0.780000       15.9994           0
     14057 MEMB     123      SOPE     O12      OSLP    -0.570000       15.9994           0
     14058 MEMB     123      SOPE     O11      OSLP    -0.570000       15.9994           0
     14059 MEMB     123      SOPE     C1       CTL2    -0.800000E-01   12.0110           0
     14060 MEMB     123      SOPE     HA       HAL2     0.900000E-01   1.00800           0
     14061 MEMB     123      SOPE     HB       HAL2     0.900000E-01   1.00800           0
     14062 MEMB     123      SOPE     C2       CTL1     0.170000       12.0110           0
     14063 MEMB     123      SOPE     HS       HAL1     0.900000E-01   1.00800           0
     14064 MEMB     123      SOPE     O21      OSL     -0.490000       15.9994           0
     14065 MEMB     123      SOPE     C21      CL       0.900000       12.0110           0
     14066 MEMB     123      SOPE     O22      OBL     -0.630000       15.9994           0
     14067 MEMB     123      SOPE     C22      CTL2    -0.220000       12.0110           0
     14068 MEMB     123      SOPE     H2R      HAL2     0.900000E-01   1.00800           0
     14069 MEMB     123      SOPE     H2S      HAL2     0.900000E-01   1.00800           0
     14070 MEMB     123      SOPE     C3       CTL2     0.800000E-01   12.0110           0
     14071 MEMB     123      SOPE     HX       HAL2     0.900000E-01   1.00800           0
     14072 MEMB     123      SOPE     HY       HAL2     0.900000E-01   1.00800           0
     14073 MEMB     123      SOPE     O31      OSL     -0.490000       15.9994           0
     14074 MEMB     123      SOPE     C31      CL       0.900000       12.0110           0
     14075 MEMB     123      SOPE     O32      OBL     -0.630000       15.9994           0
     14076 MEMB     123      SOPE     C32      CTL2    -0.220000       12.0110           0
     14077 MEMB     123      SOPE     H2X      HAL2     0.900000E-01   1.00800           0
     14078 MEMB     123      SOPE     H2Y      HAL2     0.900000E-01   1.00800           0
     14079 MEMB     123      SOPE     C23      CTL2    -0.180000       12.0110           0
     14080 MEMB     123      SOPE     H3R      HAL2     0.900000E-01   1.00800           0
     14081 MEMB     123      SOPE     H3S      HAL2     0.900000E-01   1.00800           0
     14082 MEMB     123      SOPE     C24      CTL2    -0.180000       12.0110           0
     14083 MEMB     123      SOPE     H4R      HAL2     0.900000E-01   1.00800           0
     14084 MEMB     123      SOPE     H4S      HAL2     0.900000E-01   1.00800           0
     14085 MEMB     123      SOPE     C25      CTL2    -0.180000       12.0110           0
     14086 MEMB     123      SOPE     H5R      HAL2     0.900000E-01   1.00800           0
     14087 MEMB     123      SOPE     H5S      HAL2     0.900000E-01   1.00800           0
     14088 MEMB     123      SOPE     C26      CTL2    -0.180000       12.0110           0
     14089 MEMB     123      SOPE     H6R      HAL2     0.900000E-01   1.00800           0
     14090 MEMB     123      SOPE     H6S      HAL2     0.900000E-01   1.00800           0
     14091 MEMB     123      SOPE     C27      CTL2    -0.180000       12.0110           0
     14092 MEMB     123      SOPE     H7R      HAL2     0.900000E-01   1.00800           0
     14093 MEMB     123      SOPE     H7S      HAL2     0.900000E-01   1.00800           0
     14094 MEMB     123      SOPE     C28      CTL2    -0.180000       12.0110           0
     14095 MEMB     123      SOPE     H8R      HAL2     0.900000E-01   1.00800           0
     14096 MEMB     123      SOPE     H8S      HAL2     0.900000E-01   1.00800           0
     14097 MEMB     123      SOPE     C29      CEL1    -0.150000       12.0110           0
     14098 MEMB     123      SOPE     H91      HEL1     0.150000       1.00800           0
     14099 MEMB     123      SOPE     C210     CEL1    -0.150000       12.0110           0
     14100 MEMB     123      SOPE     H101     HEL1     0.150000       1.00800           0
     14101 MEMB     123      SOPE     C211     CTL2    -0.180000       12.0110           0
     14102 MEMB     123      SOPE     H11R     HAL2     0.900000E-01   1.00800           0
     14103 MEMB     123      SOPE     H11S     HAL2     0.900000E-01   1.00800           0
     14104 MEMB     123      SOPE     C212     CTL2    -0.180000       12.0110           0
     14105 MEMB     123      SOPE     H12R     HAL2     0.900000E-01   1.00800           0
     14106 MEMB     123      SOPE     H12S     HAL2     0.900000E-01   1.00800           0
     14107 MEMB     123      SOPE     C213     CTL2    -0.180000       12.0110           0
     14108 MEMB     123      SOPE     H13R     HAL2     0.900000E-01   1.00800           0
     14109 MEMB     123      SOPE     H13S     HAL2     0.900000E-01   1.00800           0
     14110 MEMB     123      SOPE     C214     CTL2    -0.180000       12.0110           0
     14111 MEMB     123      SOPE     H14R     HAL2     0.900000E-01   1.00800           0
     14112 MEMB     123      SOPE     H14S     HAL2     0.900000E-01   1.00800           0
     14113 MEMB     123      SOPE     C215     CTL2    -0.180000       12.0110           0
     14114 MEMB     123      SOPE     H15R     HAL2     0.900000E-01   1.00800           0
     14115 MEMB     123      SOPE     H15S     HAL2     0.900000E-01   1.00800           0
     14116 MEMB     123      SOPE     C216     CTL2    -0.180000       12.0110           0
     14117 MEMB     123      SOPE     H16R     HAL2     0.900000E-01   1.00800           0
     14118 MEMB     123      SOPE     H16S     HAL2     0.900000E-01   1.00800           0
     14119 MEMB     123      SOPE     C217     CTL2    -0.180000       12.0110           0
     14120 MEMB     123      SOPE     H17R     HAL2     0.900000E-01   1.00800           0
     14121 MEMB     123      SOPE     H17S     HAL2     0.900000E-01   1.00800           0
     14122 MEMB     123      SOPE     C218     CTL3    -0.270000       12.0110           0
     14123 MEMB     123      SOPE     H18R     HAL3     0.900000E-01   1.00800           0
     14124 MEMB     123      SOPE     H18S     HAL3     0.900000E-01   1.00800           0
     14125 MEMB     123      SOPE     H18T     HAL3     0.900000E-01   1.00800           0
     14126 MEMB     123      SOPE     C33      CTL2    -0.180000       12.0110           0
     14127 MEMB     123      SOPE     H3X      HAL2     0.900000E-01   1.00800           0
     14128 MEMB     123      SOPE     H3Y      HAL2     0.900000E-01   1.00800           0
     14129 MEMB     123      SOPE     C34      CTL2    -0.180000       12.0110           0
     14130 MEMB     123      SOPE     H4X      HAL2     0.900000E-01   1.00800           0
     14131 MEMB     123      SOPE     H4Y      HAL2     0.900000E-01   1.00800           0
     14132 MEMB     123      SOPE     C35      CTL2    -0.180000       12.0110           0
     14133 MEMB     123      SOPE     H5X      HAL2     0.900000E-01   1.00800           0
     14134 MEMB     123      SOPE     H5Y      HAL2     0.900000E-01   1.00800           0
     14135 MEMB     123      SOPE     C36      CTL2    -0.180000       12.0110           0
     14136 MEMB     123      SOPE     H6X      HAL2     0.900000E-01   1.00800           0
     14137 MEMB     123      SOPE     H6Y      HAL2     0.900000E-01   1.00800           0
     14138 MEMB     123      SOPE     C37      CTL2    -0.180000       12.0110           0
     14139 MEMB     123      SOPE     H7X      HAL2     0.900000E-01   1.00800           0
     14140 MEMB     123      SOPE     H7Y      HAL2     0.900000E-01   1.00800           0
     14141 MEMB     123      SOPE     C38      CTL2    -0.180000       12.0110           0
     14142 MEMB     123      SOPE     H8X      HAL2     0.900000E-01   1.00800           0
     14143 MEMB     123      SOPE     H8Y      HAL2     0.900000E-01   1.00800           0
     14144 MEMB     123      SOPE     C39      CTL2    -0.180000       12.0110           0
     14145 MEMB     123      SOPE     H9X      HAL2     0.900000E-01   1.00800           0
     14146 MEMB     123      SOPE     H9Y      HAL2     0.900000E-01   1.00800           0
     14147 MEMB     123      SOPE     C310     CTL2    -0.180000       12.0110           0
     14148 MEMB     123      SOPE     H10X     HAL2     0.900000E-01   1.00800           0
     14149 MEMB     123      SOPE     H10Y     HAL2     0.900000E-01   1.00800           0
     14150 MEMB     123      SOPE     C311     CTL2    -0.180000       12.0110           0
     14151 MEMB     123      SOPE     H11X     HAL2     0.900000E-01   1.00800           0
     14152 MEMB     123      SOPE     H11Y     HAL2     0.900000E-01   1.00800           0
     14153 MEMB     123      SOPE     C312     CTL2    -0.180000       12.0110           0
     14154 MEMB     123      SOPE     H12X     HAL2     0.900000E-01   1.00800           0
     14155 MEMB     123      SOPE     H12Y     HAL2     0.900000E-01   1.00800           0
     14156 MEMB     123      SOPE     C313     CTL2    -0.180000       12.0110           0
     14157 MEMB     123      SOPE     H13X     HAL2     0.900000E-01   1.00800           0
     14158 MEMB     123      SOPE     H13Y     HAL2     0.900000E-01   1.00800           0
     14159 MEMB     123      SOPE     C314     CTL2    -0.180000       12.0110           0
     14160 MEMB     123      SOPE     H14X     HAL2     0.900000E-01   1.00800           0
     14161 MEMB     123      SOPE     H14Y     HAL2     0.900000E-01   1.00800           0
     14162 MEMB     123      SOPE     C315     CTL2    -0.180000       12.0110           0
     14163 MEMB     123      SOPE     H15X     HAL2     0.900000E-01   1.00800           0
     14164 MEMB     123      SOPE     H15Y     HAL2     0.900000E-01   1.00800           0
     14165 MEMB     123      SOPE     C316     CTL2    -0.180000       12.0110           0
     14166 MEMB     123      SOPE     H16X     HAL2     0.900000E-01   1.00800           0
     14167 MEMB     123      SOPE     H16Y     HAL2     0.900000E-01   1.00800           0
     14168 MEMB     123      SOPE     C317     CTL2    -0.180000       12.0110           0
     14169 MEMB     123      SOPE     H17X     HAL2     0.900000E-01   1.00800           0
     14170 MEMB     123      SOPE     H17Y     HAL2     0.900000E-01   1.00800           0
     14171 MEMB     123      SOPE     C318     CTL3    -0.270000       12.0110           0
     14172 MEMB     123      SOPE     H18X     HAL3     0.900000E-01   1.00800           0
     14173 MEMB     123      SOPE     H18Y     HAL3     0.900000E-01   1.00800           0
     14174 MEMB     123      SOPE     H18Z     HAL3     0.900000E-01   1.00800           0
     14175 MEMB     124      SAPS     N        NH3L    -0.300000       14.0070           0
     14176 MEMB     124      SAPS     HN1      HCL      0.330000       1.00800           0
     14177 MEMB     124      SAPS     HN2      HCL      0.330000       1.00800           0
     14178 MEMB     124      SAPS     HN3      HCL      0.330000       1.00800           0
     14179 MEMB     124      SAPS     C12      CTL1     0.210000       12.0110           0
     14180 MEMB     124      SAPS     H12A     HBL      0.100000       1.00800           0
     14181 MEMB     124      SAPS     C13      CCL      0.340000       12.0110           0
     14182 MEMB     124      SAPS     O13A     OCL     -0.670000       15.9994           0
     14183 MEMB     124      SAPS     O13B     OCL     -0.670000       15.9994           0
     14184 MEMB     124      SAPS     C11      CTL2    -0.800000E-01   12.0110           0
     14185 MEMB     124      SAPS     H11A     HAL2     0.900000E-01   1.00800           0
     14186 MEMB     124      SAPS     H11B     HAL2     0.900000E-01   1.00800           0
     14187 MEMB     124      SAPS     P        PL        1.50000       30.9740           0
     14188 MEMB     124      SAPS     O13      O2L     -0.780000       15.9994           0
     14189 MEMB     124      SAPS     O14      O2L     -0.780000       15.9994           0
     14190 MEMB     124      SAPS     O12      OSLP    -0.570000       15.9994           0
     14191 MEMB     124      SAPS     O11      OSLP    -0.570000       15.9994           0
     14192 MEMB     124      SAPS     C1       CTL2    -0.800000E-01   12.0110           0
     14193 MEMB     124      SAPS     HA       HAL2     0.900000E-01   1.00800           0
     14194 MEMB     124      SAPS     HB       HAL2     0.900000E-01   1.00800           0
     14195 MEMB     124      SAPS     C2       CTL1     0.170000       12.0110           0
     14196 MEMB     124      SAPS     HS       HAL1     0.900000E-01   1.00800           0
     14197 MEMB     124      SAPS     O21      OSL     -0.490000       15.9994           0
     14198 MEMB     124      SAPS     C21      CL       0.900000       12.0110           0
     14199 MEMB     124      SAPS     O22      OBL     -0.630000       15.9994           0
     14200 MEMB     124      SAPS     C22      CTL2    -0.220000       12.0110           0
     14201 MEMB     124      SAPS     H2R      HAL2     0.900000E-01   1.00800           0
     14202 MEMB     124      SAPS     H2S      HAL2     0.900000E-01   1.00800           0
     14203 MEMB     124      SAPS     C3       CTL2     0.800000E-01   12.0110           0
     14204 MEMB     124      SAPS     HX       HAL2     0.900000E-01   1.00800           0
     14205 MEMB     124      SAPS     HY       HAL2     0.900000E-01   1.00800           0
     14206 MEMB     124      SAPS     O31      OSL     -0.490000       15.9994           0
     14207 MEMB     124      SAPS     C31      CL       0.900000       12.0110           0
     14208 MEMB     124      SAPS     O32      OBL     -0.630000       15.9994           0
     14209 MEMB     124      SAPS     C32      CTL2    -0.220000       12.0110           0
     14210 MEMB     124      SAPS     H2X      HAL2     0.900000E-01   1.00800           0
     14211 MEMB     124      SAPS     H2Y      HAL2     0.900000E-01   1.00800           0
     14212 MEMB     124      SAPS     C23      CTL2    -0.180000       12.0110           0
     14213 MEMB     124      SAPS     H3R      HAL2     0.900000E-01   1.00800           0
     14214 MEMB     124      SAPS     H3S      HAL2     0.900000E-01   1.00800           0
     14215 MEMB     124      SAPS     C24      CTL2    -0.180000       12.0110           0
     14216 MEMB     124      SAPS     H4R      HAL2     0.900000E-01   1.00800           0
     14217 MEMB     124      SAPS     H4S      HAL2     0.900000E-01   1.00800           0
     14218 MEMB     124      SAPS     C25      CEL1    -0.150000       12.0110           0
     14219 MEMB     124      SAPS     H5R      HEL1     0.150000       1.00800           0
     14220 MEMB     124      SAPS     C26      CEL1    -0.150000       12.0110           0
     14221 MEMB     124      SAPS     H6R      HEL1     0.150000       1.00800           0
     14222 MEMB     124      SAPS     C27      CTL2    -0.180000       12.0110           0
     14223 MEMB     124      SAPS     H7R      HAL2     0.900000E-01   1.00800           0
     14224 MEMB     124      SAPS     H7S      HAL2     0.900000E-01   1.00800           0
     14225 MEMB     124      SAPS     C28      CEL1    -0.150000       12.0110           0
     14226 MEMB     124      SAPS     H8R      HEL1     0.150000       1.00800           0
     14227 MEMB     124      SAPS     C29      CEL1    -0.150000       12.0110           0
     14228 MEMB     124      SAPS     H9R      HEL1     0.150000       1.00800           0
     14229 MEMB     124      SAPS     C210     CTL2    -0.180000       12.0110           0
     14230 MEMB     124      SAPS     H10R     HAL2     0.900000E-01   1.00800           0
     14231 MEMB     124      SAPS     H10S     HAL2     0.900000E-01   1.00800           0
     14232 MEMB     124      SAPS     C211     CEL1    -0.150000       12.0110           0
     14233 MEMB     124      SAPS     H11R     HEL1     0.150000       1.00800           0
     14234 MEMB     124      SAPS     C212     CEL1    -0.150000       12.0110           0
     14235 MEMB     124      SAPS     H12R     HEL1     0.150000       1.00800           0
     14236 MEMB     124      SAPS     C213     CTL2    -0.180000       12.0110           0
     14237 MEMB     124      SAPS     H13R     HAL2     0.900000E-01   1.00800           0
     14238 MEMB     124      SAPS     H13S     HAL2     0.900000E-01   1.00800           0
     14239 MEMB     124      SAPS     C214     CEL1    -0.150000       12.0110           0
     14240 MEMB     124      SAPS     H14R     HEL1     0.150000       1.00800           0
     14241 MEMB     124      SAPS     C215     CEL1    -0.150000       12.0110           0
     14242 MEMB     124      SAPS     H15R     HEL1     0.150000       1.00800           0
     14243 MEMB     124      SAPS     C216     CTL2    -0.180000       12.0110           0
     14244 MEMB     124      SAPS     H16R     HAL2     0.900000E-01   1.00800           0
     14245 MEMB     124      SAPS     H16S     HAL2     0.900000E-01   1.00800           0
     14246 MEMB     124      SAPS     C217     CTL2    -0.180000       12.0110           0
     14247 MEMB     124      SAPS     H17R     HAL2     0.900000E-01   1.00800           0
     14248 MEMB     124      SAPS     H17S     HAL2     0.900000E-01   1.00800           0
     14249 MEMB     124      SAPS     C218     CTL2    -0.180000       12.0110           0
     14250 MEMB     124      SAPS     H18R     HAL2     0.900000E-01   1.00800           0
     14251 MEMB     124      SAPS     H18S     HAL2     0.900000E-01   1.00800           0
     14252 MEMB     124      SAPS     C219     CTL2    -0.180000       12.0110           0
     14253 MEMB     124      SAPS     H19R     HAL2     0.900000E-01   1.00800           0
     14254 MEMB     124      SAPS     H19S     HAL2     0.900000E-01   1.00800           0
     14255 MEMB     124      SAPS     C220     CTL3    -0.270000       12.0110           0
     14256 MEMB     124      SAPS     H20R     HAL3     0.900000E-01   1.00800           0
     14257 MEMB     124      SAPS     H20S     HAL3     0.900000E-01   1.00800           0
     14258 MEMB     124      SAPS     H20T     HAL3     0.900000E-01   1.00800           0
     14259 MEMB     124      SAPS     C33      CTL2    -0.180000       12.0110           0
     14260 MEMB     124      SAPS     H3X      HAL2     0.900000E-01   1.00800           0
     14261 MEMB     124      SAPS     H3Y      HAL2     0.900000E-01   1.00800           0
     14262 MEMB     124      SAPS     C34      CTL2    -0.180000       12.0110           0
     14263 MEMB     124      SAPS     H4X      HAL2     0.900000E-01   1.00800           0
     14264 MEMB     124      SAPS     H4Y      HAL2     0.900000E-01   1.00800           0
     14265 MEMB     124      SAPS     C35      CTL2    -0.180000       12.0110           0
     14266 MEMB     124      SAPS     H5X      HAL2     0.900000E-01   1.00800           0
     14267 MEMB     124      SAPS     H5Y      HAL2     0.900000E-01   1.00800           0
     14268 MEMB     124      SAPS     C36      CTL2    -0.180000       12.0110           0
     14269 MEMB     124      SAPS     H6X      HAL2     0.900000E-01   1.00800           0
     14270 MEMB     124      SAPS     H6Y      HAL2     0.900000E-01   1.00800           0
     14271 MEMB     124      SAPS     C37      CTL2    -0.180000       12.0110           0
     14272 MEMB     124      SAPS     H7X      HAL2     0.900000E-01   1.00800           0
     14273 MEMB     124      SAPS     H7Y      HAL2     0.900000E-01   1.00800           0
     14274 MEMB     124      SAPS     C38      CTL2    -0.180000       12.0110           0
     14275 MEMB     124      SAPS     H8X      HAL2     0.900000E-01   1.00800           0
     14276 MEMB     124      SAPS     H8Y      HAL2     0.900000E-01   1.00800           0
     14277 MEMB     124      SAPS     C39      CTL2    -0.180000       12.0110           0
     14278 MEMB     124      SAPS     H9X      HAL2     0.900000E-01   1.00800           0
     14279 MEMB     124      SAPS     H9Y      HAL2     0.900000E-01   1.00800           0
     14280 MEMB     124      SAPS     C310     CTL2    -0.180000       12.0110           0
     14281 MEMB     124      SAPS     H10X     HAL2     0.900000E-01   1.00800           0
     14282 MEMB     124      SAPS     H10Y     HAL2     0.900000E-01   1.00800           0
     14283 MEMB     124      SAPS     C311     CTL2    -0.180000       12.0110           0
     14284 MEMB     124      SAPS     H11X     HAL2     0.900000E-01   1.00800           0
     14285 MEMB     124      SAPS     H11Y     HAL2     0.900000E-01   1.00800           0
     14286 MEMB     124      SAPS     C312     CTL2    -0.180000       12.0110           0
     14287 MEMB     124      SAPS     H12X     HAL2     0.900000E-01   1.00800           0
     14288 MEMB     124      SAPS     H12Y     HAL2     0.900000E-01   1.00800           0
     14289 MEMB     124      SAPS     C313     CTL2    -0.180000       12.0110           0
     14290 MEMB     124      SAPS     H13X     HAL2     0.900000E-01   1.00800           0
     14291 MEMB     124      SAPS     H13Y     HAL2     0.900000E-01   1.00800           0
     14292 MEMB     124      SAPS     C314     CTL2    -0.180000       12.0110           0
     14293 MEMB     124      SAPS     H14X     HAL2     0.900000E-01   1.00800           0
     14294 MEMB     124      SAPS     H14Y     HAL2     0.900000E-01   1.00800           0
     14295 MEMB     124      SAPS     C315     CTL2    -0.180000       12.0110           0
     14296 MEMB     124      SAPS     H15X     HAL2     0.900000E-01   1.00800           0
     14297 MEMB     124      SAPS     H15Y     HAL2     0.900000E-01   1.00800           0
     14298 MEMB     124      SAPS     C316     CTL2    -0.180000       12.0110           0
     14299 MEMB     124      SAPS     H16X     HAL2     0.900000E-01   1.00800           0
     14300 MEMB     124      SAPS     H16Y     HAL2     0.900000E-01   1.00800           0
     14301 MEMB     124      SAPS     C317     CTL2    -0.180000       12.0110           0
     14302 MEMB     124      SAPS     H17X     HAL2     0.900000E-01   1.00800           0
     14303 MEMB     124      SAPS     H17Y     HAL2     0.900000E-01   1.00800           0
     14304 MEMB     124      SAPS     C318     CTL3    -0.270000       12.0110           0
     14305 MEMB     124      SAPS     H18X     HAL3     0.900000E-01   1.00800           0
     14306 MEMB     124      SAPS     H18Y     HAL3     0.900000E-01   1.00800           0
     14307 MEMB     124      SAPS     H18Z     HAL3     0.900000E-01   1.00800           0
     14308 MEMB     125      OSM      N        NTL     -0.600000       14.0070           0
     14309 MEMB     125      OSM      C15      CTL5    -0.350000       12.0110           0
     14310 MEMB     125      OSM      H15A     HL       0.250000       1.00800           0
     14311 MEMB     125      OSM      H15B     HL       0.250000       1.00800           0
     14312 MEMB     125      OSM      H15C     HL       0.250000       1.00800           0
     14313 MEMB     125      OSM      C14      CTL5    -0.350000       12.0110           0
     14314 MEMB     125      OSM      H14A     HL       0.250000       1.00800           0
     14315 MEMB     125      OSM      H14B     HL       0.250000       1.00800           0
     14316 MEMB     125      OSM      H14C     HL       0.250000       1.00800           0
     14317 MEMB     125      OSM      C13      CTL5    -0.350000       12.0110           0
     14318 MEMB     125      OSM      H13A     HL       0.250000       1.00800           0
     14319 MEMB     125      OSM      H13B     HL       0.250000       1.00800           0
     14320 MEMB     125      OSM      H13C     HL       0.250000       1.00800           0
     14321 MEMB     125      OSM      C12      CTL2    -0.100000       12.0110           0
     14322 MEMB     125      OSM      H12A     HL       0.250000       1.00800           0
     14323 MEMB     125      OSM      H12B     HL       0.250000       1.00800           0
     14324 MEMB     125      OSM      C11      CTL2    -0.800000E-01   12.0110           0
     14325 MEMB     125      OSM      H11A     HAL2     0.900000E-01   1.00800           0
     14326 MEMB     125      OSM      H11B     HAL2     0.900000E-01   1.00800           0
     14327 MEMB     125      OSM      P        PL        1.50000       30.9740           0
     14328 MEMB     125      OSM      O13      O2L     -0.780000       15.9994           0
     14329 MEMB     125      OSM      O14      O2L     -0.780000       15.9994           0
     14330 MEMB     125      OSM      O11      OSLP    -0.570000       15.9994           0
     14331 MEMB     125      OSM      O12      OSLP    -0.570000       15.9994           0
     14332 MEMB     125      OSM      C1S      CTL2    -0.800000E-01   12.0110           0
     14333 MEMB     125      OSM      H1S      HAL2     0.900000E-01   1.00800           0
     14334 MEMB     125      OSM      H1T      HAL2     0.900000E-01   1.00800           0
     14335 MEMB     125      OSM      NF       NHL     -0.700000       14.0070           0
     14336 MEMB     125      OSM      HNF      H        0.350000       1.00800           0
     14337 MEMB     125      OSM      C2S      CTL1     0.300000       12.0110           0
     14338 MEMB     125      OSM      H2S      HAL1     0.500000E-01   1.00800           0
     14339 MEMB     125      OSM      C3S      CTO1     0.500000       12.0110           0
     14340 MEMB     125      OSM      H3S      HAL1    -0.110000       1.00800           0
     14341 MEMB     125      OSM      O3       OHL     -0.690000       15.9994           0
     14342 MEMB     125      OSM      HO3      HOL      0.300000       1.00800           0
     14343 MEMB     125      OSM      C4S      CEL3    -0.150000       12.0110           0
     14344 MEMB     125      OSM      H4S      HEL1     0.150000       1.00800           0
     14345 MEMB     125      OSM      C5S      CEL3    -0.150000       12.0110           0
     14346 MEMB     125      OSM      H5S      HEL1     0.150000       1.00800           0
     14347 MEMB     125      OSM      C6S      CTL2    -0.180000       12.0110           0
     14348 MEMB     125      OSM      H6S      HAL2     0.900000E-01   1.00800           0
     14349 MEMB     125      OSM      H6T      HAL2     0.900000E-01   1.00800           0
     14350 MEMB     125      OSM      C7S      CTL2    -0.180000       12.0110           0
     14351 MEMB     125      OSM      H7S      HAL2     0.900000E-01   1.00800           0
     14352 MEMB     125      OSM      H7T      HAL2     0.900000E-01   1.00800           0
     14353 MEMB     125      OSM      C8S      CTL2    -0.180000       12.0110           0
     14354 MEMB     125      OSM      H8S      HAL2     0.900000E-01   1.00800           0
     14355 MEMB     125      OSM      H8T      HAL2     0.900000E-01   1.00800           0
     14356 MEMB     125      OSM      C9S      CTL2    -0.180000       12.0110           0
     14357 MEMB     125      OSM      H9S      HAL2     0.900000E-01   1.00800           0
     14358 MEMB     125      OSM      H9T      HAL2     0.900000E-01   1.00800           0
     14359 MEMB     125      OSM      C10S     CTL2    -0.180000       12.0110           0
     14360 MEMB     125      OSM      H10S     HAL2     0.900000E-01   1.00800           0
     14361 MEMB     125      OSM      H10T     HAL2     0.900000E-01   1.00800           0
     14362 MEMB     125      OSM      C11S     CTL2    -0.180000       12.0110           0
     14363 MEMB     125      OSM      H11S     HAL2     0.900000E-01   1.00800           0
     14364 MEMB     125      OSM      H11T     HAL2     0.900000E-01   1.00800           0
     14365 MEMB     125      OSM      C12S     CTL2    -0.180000       12.0110           0
     14366 MEMB     125      OSM      H12S     HAL2     0.900000E-01   1.00800           0
     14367 MEMB     125      OSM      H12T     HAL2     0.900000E-01   1.00800           0
     14368 MEMB     125      OSM      C13S     CTL2    -0.180000       12.0110           0
     14369 MEMB     125      OSM      H13S     HAL2     0.900000E-01   1.00800           0
     14370 MEMB     125      OSM      H13T     HAL2     0.900000E-01   1.00800           0
     14371 MEMB     125      OSM      C14S     CTL2    -0.180000       12.0110           0
     14372 MEMB     125      OSM      H14S     HAL2     0.900000E-01   1.00800           0
     14373 MEMB     125      OSM      H14T     HAL2     0.900000E-01   1.00800           0
     14374 MEMB     125      OSM      C15S     CTL2    -0.180000       12.0110           0
     14375 MEMB     125      OSM      H15S     HAL2     0.900000E-01   1.00800           0
     14376 MEMB     125      OSM      H15T     HAL2     0.900000E-01   1.00800           0
     14377 MEMB     125      OSM      C16S     CTL2    -0.180000       12.0110           0
     14378 MEMB     125      OSM      H16S     HAL2     0.900000E-01   1.00800           0
     14379 MEMB     125      OSM      H16T     HAL2     0.900000E-01   1.00800           0
     14380 MEMB     125      OSM      C17S     CTL2    -0.180000       12.0110           0
     14381 MEMB     125      OSM      H17S     HAL2     0.900000E-01   1.00800           0
     14382 MEMB     125      OSM      H17T     HAL2     0.900000E-01   1.00800           0
     14383 MEMB     125      OSM      C18S     CTL3    -0.270000       12.0110           0
     14384 MEMB     125      OSM      H18S     HAL3     0.900000E-01   1.00800           0
     14385 MEMB     125      OSM      H18T     HAL3     0.900000E-01   1.00800           0
     14386 MEMB     125      OSM      H18U     HAL3     0.900000E-01   1.00800           0
     14387 MEMB     125      OSM      C1F      C        0.550000       12.0110           0
     14388 MEMB     125      OSM      OF       O       -0.600000       15.9994           0
     14389 MEMB     125      OSM      C2F      CTL2    -0.700000E-01   12.0110           0
     14390 MEMB     125      OSM      H2F      HAL2     0.600000E-01   1.00800           0
     14391 MEMB     125      OSM      H2G      HAL2     0.600000E-01   1.00800           0
     14392 MEMB     125      OSM      C3F      CTL2    -0.180000       12.0110           0
     14393 MEMB     125      OSM      H3F      HAL2     0.900000E-01   1.00800           0
     14394 MEMB     125      OSM      H3G      HAL2     0.900000E-01   1.00800           0
     14395 MEMB     125      OSM      C4F      CTL2    -0.180000       12.0110           0
     14396 MEMB     125      OSM      H4F      HAL2     0.900000E-01   1.00800           0
     14397 MEMB     125      OSM      H4G      HAL2     0.900000E-01   1.00800           0
     14398 MEMB     125      OSM      C5F      CTL2    -0.180000       12.0110           0
     14399 MEMB     125      OSM      H5F      HAL2     0.900000E-01   1.00800           0
     14400 MEMB     125      OSM      H5G      HAL2     0.900000E-01   1.00800           0
     14401 MEMB     125      OSM      C6F      CTL2    -0.180000       12.0110           0
     14402 MEMB     125      OSM      H6F      HAL2     0.900000E-01   1.00800           0
     14403 MEMB     125      OSM      H6G      HAL2     0.900000E-01   1.00800           0
     14404 MEMB     125      OSM      C7F      CTL2    -0.180000       12.0110           0
     14405 MEMB     125      OSM      H7F      HAL2     0.900000E-01   1.00800           0
     14406 MEMB     125      OSM      H7G      HAL2     0.900000E-01   1.00800           0
     14407 MEMB     125      OSM      C8F      CTL2    -0.180000       12.0110           0
     14408 MEMB     125      OSM      H8F      HAL2     0.900000E-01   1.00800           0
     14409 MEMB     125      OSM      H8G      HAL2     0.900000E-01   1.00800           0
     14410 MEMB     125      OSM      C9F      CEL1    -0.150000       12.0110           0
     14411 MEMB     125      OSM      H9F      HEL1     0.150000       1.00800           0
     14412 MEMB     125      OSM      C10F     CEL1    -0.150000       12.0110           0
     14413 MEMB     125      OSM      H10F     HEL1     0.150000       1.00800           0
     14414 MEMB     125      OSM      C11F     CTL2    -0.180000       12.0110           0
     14415 MEMB     125      OSM      H11F     HAL2     0.900000E-01   1.00800           0
     14416 MEMB     125      OSM      H11G     HAL2     0.900000E-01   1.00800           0
     14417 MEMB     125      OSM      C12F     CTL2    -0.180000       12.0110           0
     14418 MEMB     125      OSM      H12F     HAL2     0.900000E-01   1.00800           0
     14419 MEMB     125      OSM      H12G     HAL2     0.900000E-01   1.00800           0
     14420 MEMB     125      OSM      C13F     CTL2    -0.180000       12.0110           0
     14421 MEMB     125      OSM      H13F     HAL2     0.900000E-01   1.00800           0
     14422 MEMB     125      OSM      H13G     HAL2     0.900000E-01   1.00800           0
     14423 MEMB     125      OSM      C14F     CTL2    -0.180000       12.0110           0
     14424 MEMB     125      OSM      H14F     HAL2     0.900000E-01   1.00800           0
     14425 MEMB     125      OSM      H14G     HAL2     0.900000E-01   1.00800           0
     14426 MEMB     125      OSM      C15F     CTL2    -0.180000       12.0110           0
     14427 MEMB     125      OSM      H15F     HAL2     0.900000E-01   1.00800           0
     14428 MEMB     125      OSM      H15G     HAL2     0.900000E-01   1.00800           0
     14429 MEMB     125      OSM      C16F     CTL2    -0.180000       12.0110           0
     14430 MEMB     125      OSM      H16F     HAL2     0.900000E-01   1.00800           0
     14431 MEMB     125      OSM      H16G     HAL2     0.900000E-01   1.00800           0
     14432 MEMB     125      OSM      C17F     CTL2    -0.180000       12.0110           0
     14433 MEMB     125      OSM      H17F     HAL2     0.900000E-01   1.00800           0
     14434 MEMB     125      OSM      H17G     HAL2     0.900000E-01   1.00800           0
     14435 MEMB     125      OSM      C18F     CTL3    -0.270000       12.0110           0
     14436 MEMB     125      OSM      H18F     HAL3     0.900000E-01   1.00800           0
     14437 MEMB     125      OSM      H18G     HAL3     0.900000E-01   1.00800           0
     14438 MEMB     125      OSM      H18H     HAL3     0.900000E-01   1.00800           0
     14439 MEMB     126      SAPC     N        NTL     -0.600000       14.0070           0
     14440 MEMB     126      SAPC     C12      CTL2    -0.100000       12.0110           0
     14441 MEMB     126      SAPC     H12A     HL       0.250000       1.00800           0
     14442 MEMB     126      SAPC     H12B     HL       0.250000       1.00800           0
     14443 MEMB     126      SAPC     C13      CTL5    -0.350000       12.0110           0
     14444 MEMB     126      SAPC     H13A     HL       0.250000       1.00800           0
     14445 MEMB     126      SAPC     H13B     HL       0.250000       1.00800           0
     14446 MEMB     126      SAPC     H13C     HL       0.250000       1.00800           0
     14447 MEMB     126      SAPC     C14      CTL5    -0.350000       12.0110           0
     14448 MEMB     126      SAPC     H14A     HL       0.250000       1.00800           0
     14449 MEMB     126      SAPC     H14B     HL       0.250000       1.00800           0
     14450 MEMB     126      SAPC     H14C     HL       0.250000       1.00800           0
     14451 MEMB     126      SAPC     C15      CTL5    -0.350000       12.0110           0
     14452 MEMB     126      SAPC     H15A     HL       0.250000       1.00800           0
     14453 MEMB     126      SAPC     H15B     HL       0.250000       1.00800           0
     14454 MEMB     126      SAPC     H15C     HL       0.250000       1.00800           0
     14455 MEMB     126      SAPC     C11      CTL2    -0.800000E-01   12.0110           0
     14456 MEMB     126      SAPC     H11A     HAL2     0.900000E-01   1.00800           0
     14457 MEMB     126      SAPC     H11B     HAL2     0.900000E-01   1.00800           0
     14458 MEMB     126      SAPC     P        PL        1.50000       30.9740           0
     14459 MEMB     126      SAPC     O13      O2L     -0.780000       15.9994           0
     14460 MEMB     126      SAPC     O14      O2L     -0.780000       15.9994           0
     14461 MEMB     126      SAPC     O12      OSLP    -0.570000       15.9994           0
     14462 MEMB     126      SAPC     O11      OSLP    -0.570000       15.9994           0
     14463 MEMB     126      SAPC     C1       CTL2    -0.800000E-01   12.0110           0
     14464 MEMB     126      SAPC     HA       HAL2     0.900000E-01   1.00800           0
     14465 MEMB     126      SAPC     HB       HAL2     0.900000E-01   1.00800           0
     14466 MEMB     126      SAPC     C2       CTL1     0.170000       12.0110           0
     14467 MEMB     126      SAPC     HS       HAL1     0.900000E-01   1.00800           0
     14468 MEMB     126      SAPC     O21      OSL     -0.490000       15.9994           0
     14469 MEMB     126      SAPC     C21      CL       0.900000       12.0110           0
     14470 MEMB     126      SAPC     O22      OBL     -0.630000       15.9994           0
     14471 MEMB     126      SAPC     C22      CTL2    -0.220000       12.0110           0
     14472 MEMB     126      SAPC     H2R      HAL2     0.900000E-01   1.00800           0
     14473 MEMB     126      SAPC     H2S      HAL2     0.900000E-01   1.00800           0
     14474 MEMB     126      SAPC     C3       CTL2     0.800000E-01   12.0110           0
     14475 MEMB     126      SAPC     HX       HAL2     0.900000E-01   1.00800           0
     14476 MEMB     126      SAPC     HY       HAL2     0.900000E-01   1.00800           0
     14477 MEMB     126      SAPC     O31      OSL     -0.490000       15.9994           0
     14478 MEMB     126      SAPC     C31      CL       0.900000       12.0110           0
     14479 MEMB     126      SAPC     O32      OBL     -0.630000       15.9994           0
     14480 MEMB     126      SAPC     C32      CTL2    -0.220000       12.0110           0
     14481 MEMB     126      SAPC     H2X      HAL2     0.900000E-01   1.00800           0
     14482 MEMB     126      SAPC     H2Y      HAL2     0.900000E-01   1.00800           0
     14483 MEMB     126      SAPC     C23      CTL2    -0.180000       12.0110           0
     14484 MEMB     126      SAPC     H3R      HAL2     0.900000E-01   1.00800           0
     14485 MEMB     126      SAPC     H3S      HAL2     0.900000E-01   1.00800           0
     14486 MEMB     126      SAPC     C24      CTL2    -0.180000       12.0110           0
     14487 MEMB     126      SAPC     H4R      HAL2     0.900000E-01   1.00800           0
     14488 MEMB     126      SAPC     H4S      HAL2     0.900000E-01   1.00800           0
     14489 MEMB     126      SAPC     C25      CEL1    -0.150000       12.0110           0
     14490 MEMB     126      SAPC     H5R      HEL1     0.150000       1.00800           0
     14491 MEMB     126      SAPC     C26      CEL1    -0.150000       12.0110           0
     14492 MEMB     126      SAPC     H6R      HEL1     0.150000       1.00800           0
     14493 MEMB     126      SAPC     C27      CTL2    -0.180000       12.0110           0
     14494 MEMB     126      SAPC     H7R      HAL2     0.900000E-01   1.00800           0
     14495 MEMB     126      SAPC     H7S      HAL2     0.900000E-01   1.00800           0
     14496 MEMB     126      SAPC     C28      CEL1    -0.150000       12.0110           0
     14497 MEMB     126      SAPC     H8R      HEL1     0.150000       1.00800           0
     14498 MEMB     126      SAPC     C29      CEL1    -0.150000       12.0110           0
     14499 MEMB     126      SAPC     H9R      HEL1     0.150000       1.00800           0
     14500 MEMB     126      SAPC     C210     CTL2    -0.180000       12.0110           0
     14501 MEMB     126      SAPC     H10R     HAL2     0.900000E-01   1.00800           0
     14502 MEMB     126      SAPC     H10S     HAL2     0.900000E-01   1.00800           0
     14503 MEMB     126      SAPC     C211     CEL1    -0.150000       12.0110           0
     14504 MEMB     126      SAPC     H11R     HEL1     0.150000       1.00800           0
     14505 MEMB     126      SAPC     C212     CEL1    -0.150000       12.0110           0
     14506 MEMB     126      SAPC     H12R     HEL1     0.150000       1.00800           0
     14507 MEMB     126      SAPC     C213     CTL2    -0.180000       12.0110           0
     14508 MEMB     126      SAPC     H13R     HAL2     0.900000E-01   1.00800           0
     14509 MEMB     126      SAPC     H13S     HAL2     0.900000E-01   1.00800           0
     14510 MEMB     126      SAPC     C214     CEL1    -0.150000       12.0110           0
     14511 MEMB     126      SAPC     H14R     HEL1     0.150000       1.00800           0
     14512 MEMB     126      SAPC     C215     CEL1    -0.150000       12.0110           0
     14513 MEMB     126      SAPC     H15R     HEL1     0.150000       1.00800           0
     14514 MEMB     126      SAPC     C216     CTL2    -0.180000       12.0110           0
     14515 MEMB     126      SAPC     H16R     HAL2     0.900000E-01   1.00800           0
     14516 MEMB     126      SAPC     H16S     HAL2     0.900000E-01   1.00800           0
     14517 MEMB     126      SAPC     C217     CTL2    -0.180000       12.0110           0
     14518 MEMB     126      SAPC     H17R     HAL2     0.900000E-01   1.00800           0
     14519 MEMB     126      SAPC     H17S     HAL2     0.900000E-01   1.00800           0
     14520 MEMB     126      SAPC     C218     CTL2    -0.270000       12.0110           0
     14521 MEMB     126      SAPC     H18R     HAL2     0.900000E-01   1.00800           0
     14522 MEMB     126      SAPC     H18S     HAL2     0.900000E-01   1.00800           0
     14523 MEMB     126      SAPC     C219     CTL2    -0.180000       12.0110           0
     14524 MEMB     126      SAPC     H19R     HAL2     0.900000E-01   1.00800           0
     14525 MEMB     126      SAPC     H19S     HAL2     0.900000E-01   1.00800           0
     14526 MEMB     126      SAPC     C220     CTL3    -0.180000       12.0110           0
     14527 MEMB     126      SAPC     H20R     HAL3     0.900000E-01   1.00800           0
     14528 MEMB     126      SAPC     H20S     HAL3     0.900000E-01   1.00800           0
     14529 MEMB     126      SAPC     H20T     HAL3     0.900000E-01   1.00800           0
     14530 MEMB     126      SAPC     C33      CTL2    -0.180000       12.0110           0
     14531 MEMB     126      SAPC     H3X      HAL2     0.900000E-01   1.00800           0
     14532 MEMB     126      SAPC     H3Y      HAL2     0.900000E-01   1.00800           0
     14533 MEMB     126      SAPC     C34      CTL2    -0.180000       12.0110           0
     14534 MEMB     126      SAPC     H4X      HAL2     0.900000E-01   1.00800           0
     14535 MEMB     126      SAPC     H4Y      HAL2     0.900000E-01   1.00800           0
     14536 MEMB     126      SAPC     C35      CTL2    -0.180000       12.0110           0
     14537 MEMB     126      SAPC     H5X      HAL2     0.900000E-01   1.00800           0
     14538 MEMB     126      SAPC     H5Y      HAL2     0.900000E-01   1.00800           0
     14539 MEMB     126      SAPC     C36      CTL2    -0.180000       12.0110           0
     14540 MEMB     126      SAPC     H6X      HAL2     0.900000E-01   1.00800           0
     14541 MEMB     126      SAPC     H6Y      HAL2     0.900000E-01   1.00800           0
     14542 MEMB     126      SAPC     C37      CTL2    -0.180000       12.0110           0
     14543 MEMB     126      SAPC     H7X      HAL2     0.900000E-01   1.00800           0
     14544 MEMB     126      SAPC     H7Y      HAL2     0.900000E-01   1.00800           0
     14545 MEMB     126      SAPC     C38      CTL2    -0.180000       12.0110           0
     14546 MEMB     126      SAPC     H8X      HAL2     0.900000E-01   1.00800           0
     14547 MEMB     126      SAPC     H8Y      HAL2     0.900000E-01   1.00800           0
     14548 MEMB     126      SAPC     C39      CTL2    -0.180000       12.0110           0
     14549 MEMB     126      SAPC     H9X      HAL2     0.900000E-01   1.00800           0
     14550 MEMB     126      SAPC     H9Y      HAL2     0.900000E-01   1.00800           0
     14551 MEMB     126      SAPC     C310     CTL2    -0.180000       12.0110           0
     14552 MEMB     126      SAPC     H10X     HAL2     0.900000E-01   1.00800           0
     14553 MEMB     126      SAPC     H10Y     HAL2     0.900000E-01   1.00800           0
     14554 MEMB     126      SAPC     C311     CTL2    -0.180000       12.0110           0
     14555 MEMB     126      SAPC     H11X     HAL2     0.900000E-01   1.00800           0
     14556 MEMB     126      SAPC     H11Y     HAL2     0.900000E-01   1.00800           0
     14557 MEMB     126      SAPC     C312     CTL2    -0.180000       12.0110           0
     14558 MEMB     126      SAPC     H12X     HAL2     0.900000E-01   1.00800           0
     14559 MEMB     126      SAPC     H12Y     HAL2     0.900000E-01   1.00800           0
     14560 MEMB     126      SAPC     C313     CTL2    -0.180000       12.0110           0
     14561 MEMB     126      SAPC     H13X     HAL2     0.900000E-01   1.00800           0
     14562 MEMB     126      SAPC     H13Y     HAL2     0.900000E-01   1.00800           0
     14563 MEMB     126      SAPC     C314     CTL2    -0.180000       12.0110           0
     14564 MEMB     126      SAPC     H14X     HAL2     0.900000E-01   1.00800           0
     14565 MEMB     126      SAPC     H14Y     HAL2     0.900000E-01   1.00800           0
     14566 MEMB     126      SAPC     C315     CTL2    -0.180000       12.0110           0
     14567 MEMB     126      SAPC     H15X     HAL2     0.900000E-01   1.00800           0
     14568 MEMB     126      SAPC     H15Y     HAL2     0.900000E-01   1.00800           0
     14569 MEMB     126      SAPC     C316     CTL2    -0.180000       12.0110           0
     14570 MEMB     126      SAPC     H16X     HAL2     0.900000E-01   1.00800           0
     14571 MEMB     126      SAPC     H16Y     HAL2     0.900000E-01   1.00800           0
     14572 MEMB     126      SAPC     C317     CTL2    -0.180000       12.0110           0
     14573 MEMB     126      SAPC     H17X     HAL2     0.900000E-01   1.00800           0
     14574 MEMB     126      SAPC     H17Y     HAL2     0.900000E-01   1.00800           0
     14575 MEMB     126      SAPC     C318     CTL3    -0.270000       12.0110           0
     14576 MEMB     126      SAPC     H18X     HAL3     0.900000E-01   1.00800           0
     14577 MEMB     126      SAPC     H18Y     HAL3     0.900000E-01   1.00800           0
     14578 MEMB     126      SAPC     H18Z     HAL3     0.900000E-01   1.00800           0
     14579 MEMB     127      CHL1     C3       CRL1     0.140000       12.0110           0
     14580 MEMB     127      CHL1     H3       HGA1     0.900000E-01   1.00800           0
     14581 MEMB     127      CHL1     O3       OHL     -0.660000       15.9994           0
     14582 MEMB     127      CHL1     H3'      HOL      0.430000       1.00800           0
     14583 MEMB     127      CHL1     C4       CRL2    -0.180000       12.0110           0
     14584 MEMB     127      CHL1     H4A      HGA2     0.900000E-01   1.00800           0
     14585 MEMB     127      CHL1     H4B      HGA2     0.900000E-01   1.00800           0
     14586 MEMB     127      CHL1     C5       CEL1      0.00000       12.0110           0
     14587 MEMB     127      CHL1     C6       CEL1    -0.150000       12.0110           0
     14588 MEMB     127      CHL1     H6       HEL1     0.150000       1.00800           0
     14589 MEMB     127      CHL1     C7       CRL2    -0.180000       12.0110           0
     14590 MEMB     127      CHL1     H7A      HGA2     0.900000E-01   1.00800           0
     14591 MEMB     127      CHL1     H7B      HGA2     0.900000E-01   1.00800           0
     14592 MEMB     127      CHL1     C8       CRL1    -0.900000E-01   12.0110           0
     14593 MEMB     127      CHL1     H8       HGA1     0.900000E-01   1.00800           0
     14594 MEMB     127      CHL1     C14      CRL1    -0.900000E-01   12.0110           0
     14595 MEMB     127      CHL1     H14      HGA1     0.900000E-01   1.00800           0
     14596 MEMB     127      CHL1     C15      CRL2    -0.180000       12.0110           0
     14597 MEMB     127      CHL1     H15A     HGA2     0.900000E-01   1.00800           0
     14598 MEMB     127      CHL1     H15B     HGA2     0.900000E-01   1.00800           0
     14599 MEMB     127      CHL1     C16      CRL2    -0.180000       12.0110           0
     14600 MEMB     127      CHL1     H16A     HGA2     0.900000E-01   1.00800           0
     14601 MEMB     127      CHL1     H16B     HGA2     0.900000E-01   1.00800           0
     14602 MEMB     127      CHL1     C17      CRL1    -0.900000E-01   12.0110           0
     14603 MEMB     127      CHL1     H17      HGA1     0.900000E-01   1.00800           0
     14604 MEMB     127      CHL1     C13      CRL1      0.00000       12.0110           0
     14605 MEMB     127      CHL1     C18      CTL3    -0.270000       12.0110           0
     14606 MEMB     127      CHL1     H18A     HAL3     0.900000E-01   1.00800           0
     14607 MEMB     127      CHL1     H18B     HAL3     0.900000E-01   1.00800           0
     14608 MEMB     127      CHL1     H18C     HAL3     0.900000E-01   1.00800           0
     14609 MEMB     127      CHL1     C12      CRL2    -0.180000       12.0110           0
     14610 MEMB     127      CHL1     H12A     HGA2     0.900000E-01   1.00800           0
     14611 MEMB     127      CHL1     H12B     HGA2     0.900000E-01   1.00800           0
     14612 MEMB     127      CHL1     C11      CRL2    -0.180000       12.0110           0
     14613 MEMB     127      CHL1     H11A     HGA2     0.900000E-01   1.00800           0
     14614 MEMB     127      CHL1     H11B     HGA2     0.900000E-01   1.00800           0
     14615 MEMB     127      CHL1     C9       CRL1    -0.900000E-01   12.0110           0
     14616 MEMB     127      CHL1     H9       HGA1     0.900000E-01   1.00800           0
     14617 MEMB     127      CHL1     C10      CRL1      0.00000       12.0110           0
     14618 MEMB     127      CHL1     C19      CTL3    -0.270000       12.0110           0
     14619 MEMB     127      CHL1     H19A     HAL3     0.900000E-01   1.00800           0
     14620 MEMB     127      CHL1     H19B     HAL3     0.900000E-01   1.00800           0
     14621 MEMB     127      CHL1     H19C     HAL3     0.900000E-01   1.00800           0
     14622 MEMB     127      CHL1     C1       CRL2    -0.180000       12.0110           0
     14623 MEMB     127      CHL1     H1A      HGA2     0.900000E-01   1.00800           0
     14624 MEMB     127      CHL1     H1B      HGA2     0.900000E-01   1.00800           0
     14625 MEMB     127      CHL1     C2       CRL2    -0.180000       12.0110           0
     14626 MEMB     127      CHL1     H2A      HGA2     0.900000E-01   1.00800           0
     14627 MEMB     127      CHL1     H2B      HGA2     0.900000E-01   1.00800           0
     14628 MEMB     127      CHL1     C20      CTL1    -0.900000E-01   12.0110           0
     14629 MEMB     127      CHL1     H20      HAL1     0.900000E-01   1.00800           0
     14630 MEMB     127      CHL1     C21      CTL3    -0.270000       12.0110           0
     14631 MEMB     127      CHL1     H21A     HAL3     0.900000E-01   1.00800           0
     14632 MEMB     127      CHL1     H21B     HAL3     0.900000E-01   1.00800           0
     14633 MEMB     127      CHL1     H21C     HAL3     0.900000E-01   1.00800           0
     14634 MEMB     127      CHL1     C22      CTL2    -0.180000       12.0110           0
     14635 MEMB     127      CHL1     H22A     HAL2     0.900000E-01   1.00800           0
     14636 MEMB     127      CHL1     H22B     HAL2     0.900000E-01   1.00800           0
     14637 MEMB     127      CHL1     C23      CTL2    -0.180000       12.0110           0
     14638 MEMB     127      CHL1     H23A     HAL2     0.900000E-01   1.00800           0
     14639 MEMB     127      CHL1     H23B     HAL2     0.900000E-01   1.00800           0
     14640 MEMB     127      CHL1     C24      CTL2    -0.180000       12.0110           0
     14641 MEMB     127      CHL1     H24A     HAL2     0.900000E-01   1.00800           0
     14642 MEMB     127      CHL1     H24B     HAL2     0.900000E-01   1.00800           0
     14643 MEMB     127      CHL1     C25      CTL1    -0.900000E-01   12.0110           0
     14644 MEMB     127      CHL1     H25      HAL1     0.900000E-01   1.00800           0
     14645 MEMB     127      CHL1     C26      CTL3    -0.270000       12.0110           0
     14646 MEMB     127      CHL1     H26A     HAL3     0.900000E-01   1.00800           0
     14647 MEMB     127      CHL1     H26B     HAL3     0.900000E-01   1.00800           0
     14648 MEMB     127      CHL1     H26C     HAL3     0.900000E-01   1.00800           0
     14649 MEMB     127      CHL1     C27      CTL3    -0.270000       12.0110           0
     14650 MEMB     127      CHL1     H27A     HAL3     0.900000E-01   1.00800           0
     14651 MEMB     127      CHL1     H27B     HAL3     0.900000E-01   1.00800           0
     14652 MEMB     127      CHL1     H27C     HAL3     0.900000E-01   1.00800           0
     14653 MEMB     128      SAPS     N        NH3L    -0.300000       14.0070           0
     14654 MEMB     128      SAPS     HN1      HCL      0.330000       1.00800           0
     14655 MEMB     128      SAPS     HN2      HCL      0.330000       1.00800           0
     14656 MEMB     128      SAPS     HN3      HCL      0.330000       1.00800           0
     14657 MEMB     128      SAPS     C12      CTL1     0.210000       12.0110           0
     14658 MEMB     128      SAPS     H12A     HBL      0.100000       1.00800           0
     14659 MEMB     128      SAPS     C13      CCL      0.340000       12.0110           0
     14660 MEMB     128      SAPS     O13A     OCL     -0.670000       15.9994           0
     14661 MEMB     128      SAPS     O13B     OCL     -0.670000       15.9994           0
     14662 MEMB     128      SAPS     C11      CTL2    -0.800000E-01   12.0110           0
     14663 MEMB     128      SAPS     H11A     HAL2     0.900000E-01   1.00800           0
     14664 MEMB     128      SAPS     H11B     HAL2     0.900000E-01   1.00800           0
     14665 MEMB     128      SAPS     P        PL        1.50000       30.9740           0
     14666 MEMB     128      SAPS     O13      O2L     -0.780000       15.9994           0
     14667 MEMB     128      SAPS     O14      O2L     -0.780000       15.9994           0
     14668 MEMB     128      SAPS     O12      OSLP    -0.570000       15.9994           0
     14669 MEMB     128      SAPS     O11      OSLP    -0.570000       15.9994           0
     14670 MEMB     128      SAPS     C1       CTL2    -0.800000E-01   12.0110           0
     14671 MEMB     128      SAPS     HA       HAL2     0.900000E-01   1.00800           0
     14672 MEMB     128      SAPS     HB       HAL2     0.900000E-01   1.00800           0
     14673 MEMB     128      SAPS     C2       CTL1     0.170000       12.0110           0
     14674 MEMB     128      SAPS     HS       HAL1     0.900000E-01   1.00800           0
     14675 MEMB     128      SAPS     O21      OSL     -0.490000       15.9994           0
     14676 MEMB     128      SAPS     C21      CL       0.900000       12.0110           0
     14677 MEMB     128      SAPS     O22      OBL     -0.630000       15.9994           0
     14678 MEMB     128      SAPS     C22      CTL2    -0.220000       12.0110           0
     14679 MEMB     128      SAPS     H2R      HAL2     0.900000E-01   1.00800           0
     14680 MEMB     128      SAPS     H2S      HAL2     0.900000E-01   1.00800           0
     14681 MEMB     128      SAPS     C3       CTL2     0.800000E-01   12.0110           0
     14682 MEMB     128      SAPS     HX       HAL2     0.900000E-01   1.00800           0
     14683 MEMB     128      SAPS     HY       HAL2     0.900000E-01   1.00800           0
     14684 MEMB     128      SAPS     O31      OSL     -0.490000       15.9994           0
     14685 MEMB     128      SAPS     C31      CL       0.900000       12.0110           0
     14686 MEMB     128      SAPS     O32      OBL     -0.630000       15.9994           0
     14687 MEMB     128      SAPS     C32      CTL2    -0.220000       12.0110           0
     14688 MEMB     128      SAPS     H2X      HAL2     0.900000E-01   1.00800           0
     14689 MEMB     128      SAPS     H2Y      HAL2     0.900000E-01   1.00800           0
     14690 MEMB     128      SAPS     C23      CTL2    -0.180000       12.0110           0
     14691 MEMB     128      SAPS     H3R      HAL2     0.900000E-01   1.00800           0
     14692 MEMB     128      SAPS     H3S      HAL2     0.900000E-01   1.00800           0
     14693 MEMB     128      SAPS     C24      CTL2    -0.180000       12.0110           0
     14694 MEMB     128      SAPS     H4R      HAL2     0.900000E-01   1.00800           0
     14695 MEMB     128      SAPS     H4S      HAL2     0.900000E-01   1.00800           0
     14696 MEMB     128      SAPS     C25      CEL1    -0.150000       12.0110           0
     14697 MEMB     128      SAPS     H5R      HEL1     0.150000       1.00800           0
     14698 MEMB     128      SAPS     C26      CEL1    -0.150000       12.0110           0
     14699 MEMB     128      SAPS     H6R      HEL1     0.150000       1.00800           0
     14700 MEMB     128      SAPS     C27      CTL2    -0.180000       12.0110           0
     14701 MEMB     128      SAPS     H7R      HAL2     0.900000E-01   1.00800           0
     14702 MEMB     128      SAPS     H7S      HAL2     0.900000E-01   1.00800           0
     14703 MEMB     128      SAPS     C28      CEL1    -0.150000       12.0110           0
     14704 MEMB     128      SAPS     H8R      HEL1     0.150000       1.00800           0
     14705 MEMB     128      SAPS     C29      CEL1    -0.150000       12.0110           0
     14706 MEMB     128      SAPS     H9R      HEL1     0.150000       1.00800           0
     14707 MEMB     128      SAPS     C210     CTL2    -0.180000       12.0110           0
     14708 MEMB     128      SAPS     H10R     HAL2     0.900000E-01   1.00800           0
     14709 MEMB     128      SAPS     H10S     HAL2     0.900000E-01   1.00800           0
     14710 MEMB     128      SAPS     C211     CEL1    -0.150000       12.0110           0
     14711 MEMB     128      SAPS     H11R     HEL1     0.150000       1.00800           0
     14712 MEMB     128      SAPS     C212     CEL1    -0.150000       12.0110           0
     14713 MEMB     128      SAPS     H12R     HEL1     0.150000       1.00800           0
     14714 MEMB     128      SAPS     C213     CTL2    -0.180000       12.0110           0
     14715 MEMB     128      SAPS     H13R     HAL2     0.900000E-01   1.00800           0
     14716 MEMB     128      SAPS     H13S     HAL2     0.900000E-01   1.00800           0
     14717 MEMB     128      SAPS     C214     CEL1    -0.150000       12.0110           0
     14718 MEMB     128      SAPS     H14R     HEL1     0.150000       1.00800           0
     14719 MEMB     128      SAPS     C215     CEL1    -0.150000       12.0110           0
     14720 MEMB     128      SAPS     H15R     HEL1     0.150000       1.00800           0
     14721 MEMB     128      SAPS     C216     CTL2    -0.180000       12.0110           0
     14722 MEMB     128      SAPS     H16R     HAL2     0.900000E-01   1.00800           0
     14723 MEMB     128      SAPS     H16S     HAL2     0.900000E-01   1.00800           0
     14724 MEMB     128      SAPS     C217     CTL2    -0.180000       12.0110           0
     14725 MEMB     128      SAPS     H17R     HAL2     0.900000E-01   1.00800           0
     14726 MEMB     128      SAPS     H17S     HAL2     0.900000E-01   1.00800           0
     14727 MEMB     128      SAPS     C218     CTL2    -0.180000       12.0110           0
     14728 MEMB     128      SAPS     H18R     HAL2     0.900000E-01   1.00800           0
     14729 MEMB     128      SAPS     H18S     HAL2     0.900000E-01   1.00800           0
     14730 MEMB     128      SAPS     C219     CTL2    -0.180000       12.0110           0
     14731 MEMB     128      SAPS     H19R     HAL2     0.900000E-01   1.00800           0
     14732 MEMB     128      SAPS     H19S     HAL2     0.900000E-01   1.00800           0
     14733 MEMB     128      SAPS     C220     CTL3    -0.270000       12.0110           0
     14734 MEMB     128      SAPS     H20R     HAL3     0.900000E-01   1.00800           0
     14735 MEMB     128      SAPS     H20S     HAL3     0.900000E-01   1.00800           0
     14736 MEMB     128      SAPS     H20T     HAL3     0.900000E-01   1.00800           0
     14737 MEMB     128      SAPS     C33      CTL2    -0.180000       12.0110           0
     14738 MEMB     128      SAPS     H3X      HAL2     0.900000E-01   1.00800           0
     14739 MEMB     128      SAPS     H3Y      HAL2     0.900000E-01   1.00800           0
     14740 MEMB     128      SAPS     C34      CTL2    -0.180000       12.0110           0
     14741 MEMB     128      SAPS     H4X      HAL2     0.900000E-01   1.00800           0
     14742 MEMB     128      SAPS     H4Y      HAL2     0.900000E-01   1.00800           0
     14743 MEMB     128      SAPS     C35      CTL2    -0.180000       12.0110           0
     14744 MEMB     128      SAPS     H5X      HAL2     0.900000E-01   1.00800           0
     14745 MEMB     128      SAPS     H5Y      HAL2     0.900000E-01   1.00800           0
     14746 MEMB     128      SAPS     C36      CTL2    -0.180000       12.0110           0
     14747 MEMB     128      SAPS     H6X      HAL2     0.900000E-01   1.00800           0
     14748 MEMB     128      SAPS     H6Y      HAL2     0.900000E-01   1.00800           0
     14749 MEMB     128      SAPS     C37      CTL2    -0.180000       12.0110           0
     14750 MEMB     128      SAPS     H7X      HAL2     0.900000E-01   1.00800           0
     14751 MEMB     128      SAPS     H7Y      HAL2     0.900000E-01   1.00800           0
     14752 MEMB     128      SAPS     C38      CTL2    -0.180000       12.0110           0
     14753 MEMB     128      SAPS     H8X      HAL2     0.900000E-01   1.00800           0
     14754 MEMB     128      SAPS     H8Y      HAL2     0.900000E-01   1.00800           0
     14755 MEMB     128      SAPS     C39      CTL2    -0.180000       12.0110           0
     14756 MEMB     128      SAPS     H9X      HAL2     0.900000E-01   1.00800           0
     14757 MEMB     128      SAPS     H9Y      HAL2     0.900000E-01   1.00800           0
     14758 MEMB     128      SAPS     C310     CTL2    -0.180000       12.0110           0
     14759 MEMB     128      SAPS     H10X     HAL2     0.900000E-01   1.00800           0
     14760 MEMB     128      SAPS     H10Y     HAL2     0.900000E-01   1.00800           0
     14761 MEMB     128      SAPS     C311     CTL2    -0.180000       12.0110           0
     14762 MEMB     128      SAPS     H11X     HAL2     0.900000E-01   1.00800           0
     14763 MEMB     128      SAPS     H11Y     HAL2     0.900000E-01   1.00800           0
     14764 MEMB     128      SAPS     C312     CTL2    -0.180000       12.0110           0
     14765 MEMB     128      SAPS     H12X     HAL2     0.900000E-01   1.00800           0
     14766 MEMB     128      SAPS     H12Y     HAL2     0.900000E-01   1.00800           0
     14767 MEMB     128      SAPS     C313     CTL2    -0.180000       12.0110           0
     14768 MEMB     128      SAPS     H13X     HAL2     0.900000E-01   1.00800           0
     14769 MEMB     128      SAPS     H13Y     HAL2     0.900000E-01   1.00800           0
     14770 MEMB     128      SAPS     C314     CTL2    -0.180000       12.0110           0
     14771 MEMB     128      SAPS     H14X     HAL2     0.900000E-01   1.00800           0
     14772 MEMB     128      SAPS     H14Y     HAL2     0.900000E-01   1.00800           0
     14773 MEMB     128      SAPS     C315     CTL2    -0.180000       12.0110           0
     14774 MEMB     128      SAPS     H15X     HAL2     0.900000E-01   1.00800           0
     14775 MEMB     128      SAPS     H15Y     HAL2     0.900000E-01   1.00800           0
     14776 MEMB     128      SAPS     C316     CTL2    -0.180000       12.0110           0
     14777 MEMB     128      SAPS     H16X     HAL2     0.900000E-01   1.00800           0
     14778 MEMB     128      SAPS     H16Y     HAL2     0.900000E-01   1.00800           0
     14779 MEMB     128      SAPS     C317     CTL2    -0.180000       12.0110           0
     14780 MEMB     128      SAPS     H17X     HAL2     0.900000E-01   1.00800           0
     14781 MEMB     128      SAPS     H17Y     HAL2     0.900000E-01   1.00800           0
     14782 MEMB     128      SAPS     C318     CTL3    -0.270000       12.0110           0
     14783 MEMB     128      SAPS     H18X     HAL3     0.900000E-01   1.00800           0
     14784 MEMB     128      SAPS     H18Y     HAL3     0.900000E-01   1.00800           0
     14785 MEMB     128      SAPS     H18Z     HAL3     0.900000E-01   1.00800           0
     14786 MEMB     129      CHL1     C3       CRL1     0.140000       12.0110           0
     14787 MEMB     129      CHL1     H3       HGA1     0.900000E-01   1.00800           0
     14788 MEMB     129      CHL1     O3       OHL     -0.660000       15.9994           0
     14789 MEMB     129      CHL1     H3'      HOL      0.430000       1.00800           0
     14790 MEMB     129      CHL1     C4       CRL2    -0.180000       12.0110           0
     14791 MEMB     129      CHL1     H4A      HGA2     0.900000E-01   1.00800           0
     14792 MEMB     129      CHL1     H4B      HGA2     0.900000E-01   1.00800           0
     14793 MEMB     129      CHL1     C5       CEL1      0.00000       12.0110           0
     14794 MEMB     129      CHL1     C6       CEL1    -0.150000       12.0110           0
     14795 MEMB     129      CHL1     H6       HEL1     0.150000       1.00800           0
     14796 MEMB     129      CHL1     C7       CRL2    -0.180000       12.0110           0
     14797 MEMB     129      CHL1     H7A      HGA2     0.900000E-01   1.00800           0
     14798 MEMB     129      CHL1     H7B      HGA2     0.900000E-01   1.00800           0
     14799 MEMB     129      CHL1     C8       CRL1    -0.900000E-01   12.0110           0
     14800 MEMB     129      CHL1     H8       HGA1     0.900000E-01   1.00800           0
     14801 MEMB     129      CHL1     C14      CRL1    -0.900000E-01   12.0110           0
     14802 MEMB     129      CHL1     H14      HGA1     0.900000E-01   1.00800           0
     14803 MEMB     129      CHL1     C15      CRL2    -0.180000       12.0110           0
     14804 MEMB     129      CHL1     H15A     HGA2     0.900000E-01   1.00800           0
     14805 MEMB     129      CHL1     H15B     HGA2     0.900000E-01   1.00800           0
     14806 MEMB     129      CHL1     C16      CRL2    -0.180000       12.0110           0
     14807 MEMB     129      CHL1     H16A     HGA2     0.900000E-01   1.00800           0
     14808 MEMB     129      CHL1     H16B     HGA2     0.900000E-01   1.00800           0
     14809 MEMB     129      CHL1     C17      CRL1    -0.900000E-01   12.0110           0
     14810 MEMB     129      CHL1     H17      HGA1     0.900000E-01   1.00800           0
     14811 MEMB     129      CHL1     C13      CRL1      0.00000       12.0110           0
     14812 MEMB     129      CHL1     C18      CTL3    -0.270000       12.0110           0
     14813 MEMB     129      CHL1     H18A     HAL3     0.900000E-01   1.00800           0
     14814 MEMB     129      CHL1     H18B     HAL3     0.900000E-01   1.00800           0
     14815 MEMB     129      CHL1     H18C     HAL3     0.900000E-01   1.00800           0
     14816 MEMB     129      CHL1     C12      CRL2    -0.180000       12.0110           0
     14817 MEMB     129      CHL1     H12A     HGA2     0.900000E-01   1.00800           0
     14818 MEMB     129      CHL1     H12B     HGA2     0.900000E-01   1.00800           0
     14819 MEMB     129      CHL1     C11      CRL2    -0.180000       12.0110           0
     14820 MEMB     129      CHL1     H11A     HGA2     0.900000E-01   1.00800           0
     14821 MEMB     129      CHL1     H11B     HGA2     0.900000E-01   1.00800           0
     14822 MEMB     129      CHL1     C9       CRL1    -0.900000E-01   12.0110           0
     14823 MEMB     129      CHL1     H9       HGA1     0.900000E-01   1.00800           0
     14824 MEMB     129      CHL1     C10      CRL1      0.00000       12.0110           0
     14825 MEMB     129      CHL1     C19      CTL3    -0.270000       12.0110           0
     14826 MEMB     129      CHL1     H19A     HAL3     0.900000E-01   1.00800           0
     14827 MEMB     129      CHL1     H19B     HAL3     0.900000E-01   1.00800           0
     14828 MEMB     129      CHL1     H19C     HAL3     0.900000E-01   1.00800           0
     14829 MEMB     129      CHL1     C1       CRL2    -0.180000       12.0110           0
     14830 MEMB     129      CHL1     H1A      HGA2     0.900000E-01   1.00800           0
     14831 MEMB     129      CHL1     H1B      HGA2     0.900000E-01   1.00800           0
     14832 MEMB     129      CHL1     C2       CRL2    -0.180000       12.0110           0
     14833 MEMB     129      CHL1     H2A      HGA2     0.900000E-01   1.00800           0
     14834 MEMB     129      CHL1     H2B      HGA2     0.900000E-01   1.00800           0
     14835 MEMB     129      CHL1     C20      CTL1    -0.900000E-01   12.0110           0
     14836 MEMB     129      CHL1     H20      HAL1     0.900000E-01   1.00800           0
     14837 MEMB     129      CHL1     C21      CTL3    -0.270000       12.0110           0
     14838 MEMB     129      CHL1     H21A     HAL3     0.900000E-01   1.00800           0
     14839 MEMB     129      CHL1     H21B     HAL3     0.900000E-01   1.00800           0
     14840 MEMB     129      CHL1     H21C     HAL3     0.900000E-01   1.00800           0
     14841 MEMB     129      CHL1     C22      CTL2    -0.180000       12.0110           0
     14842 MEMB     129      CHL1     H22A     HAL2     0.900000E-01   1.00800           0
     14843 MEMB     129      CHL1     H22B     HAL2     0.900000E-01   1.00800           0
     14844 MEMB     129      CHL1     C23      CTL2    -0.180000       12.0110           0
     14845 MEMB     129      CHL1     H23A     HAL2     0.900000E-01   1.00800           0
     14846 MEMB     129      CHL1     H23B     HAL2     0.900000E-01   1.00800           0
     14847 MEMB     129      CHL1     C24      CTL2    -0.180000       12.0110           0
     14848 MEMB     129      CHL1     H24A     HAL2     0.900000E-01   1.00800           0
     14849 MEMB     129      CHL1     H24B     HAL2     0.900000E-01   1.00800           0
     14850 MEMB     129      CHL1     C25      CTL1    -0.900000E-01   12.0110           0
     14851 MEMB     129      CHL1     H25      HAL1     0.900000E-01   1.00800           0
     14852 MEMB     129      CHL1     C26      CTL3    -0.270000       12.0110           0
     14853 MEMB     129      CHL1     H26A     HAL3     0.900000E-01   1.00800           0
     14854 MEMB     129      CHL1     H26B     HAL3     0.900000E-01   1.00800           0
     14855 MEMB     129      CHL1     H26C     HAL3     0.900000E-01   1.00800           0
     14856 MEMB     129      CHL1     C27      CTL3    -0.270000       12.0110           0
     14857 MEMB     129      CHL1     H27A     HAL3     0.900000E-01   1.00800           0
     14858 MEMB     129      CHL1     H27B     HAL3     0.900000E-01   1.00800           0
     14859 MEMB     129      CHL1     H27C     HAL3     0.900000E-01   1.00800           0
     14860 MEMB     130      SOPE     N        NH3L    -0.300000       14.0070           0
     14861 MEMB     130      SOPE     HN1      HCL      0.330000       1.00800           0
     14862 MEMB     130      SOPE     HN2      HCL      0.330000       1.00800           0
     14863 MEMB     130      SOPE     HN3      HCL      0.330000       1.00800           0
     14864 MEMB     130      SOPE     C12      CTL2     0.130000       12.0110           0
     14865 MEMB     130      SOPE     H12A     HAL2     0.900000E-01   1.00800           0
     14866 MEMB     130      SOPE     H12B     HAL2     0.900000E-01   1.00800           0
     14867 MEMB     130      SOPE     C11      CTL2    -0.800000E-01   12.0110           0
     14868 MEMB     130      SOPE     H11A     HAL2     0.900000E-01   1.00800           0
     14869 MEMB     130      SOPE     H11B     HAL2     0.900000E-01   1.00800           0
     14870 MEMB     130      SOPE     P        PL        1.50000       30.9740           0
     14871 MEMB     130      SOPE     O13      O2L     -0.780000       15.9994           0
     14872 MEMB     130      SOPE     O14      O2L     -0.780000       15.9994           0
     14873 MEMB     130      SOPE     O12      OSLP    -0.570000       15.9994           0
     14874 MEMB     130      SOPE     O11      OSLP    -0.570000       15.9994           0
     14875 MEMB     130      SOPE     C1       CTL2    -0.800000E-01   12.0110           0
     14876 MEMB     130      SOPE     HA       HAL2     0.900000E-01   1.00800           0
     14877 MEMB     130      SOPE     HB       HAL2     0.900000E-01   1.00800           0
     14878 MEMB     130      SOPE     C2       CTL1     0.170000       12.0110           0
     14879 MEMB     130      SOPE     HS       HAL1     0.900000E-01   1.00800           0
     14880 MEMB     130      SOPE     O21      OSL     -0.490000       15.9994           0
     14881 MEMB     130      SOPE     C21      CL       0.900000       12.0110           0
     14882 MEMB     130      SOPE     O22      OBL     -0.630000       15.9994           0
     14883 MEMB     130      SOPE     C22      CTL2    -0.220000       12.0110           0
     14884 MEMB     130      SOPE     H2R      HAL2     0.900000E-01   1.00800           0
     14885 MEMB     130      SOPE     H2S      HAL2     0.900000E-01   1.00800           0
     14886 MEMB     130      SOPE     C3       CTL2     0.800000E-01   12.0110           0
     14887 MEMB     130      SOPE     HX       HAL2     0.900000E-01   1.00800           0
     14888 MEMB     130      SOPE     HY       HAL2     0.900000E-01   1.00800           0
     14889 MEMB     130      SOPE     O31      OSL     -0.490000       15.9994           0
     14890 MEMB     130      SOPE     C31      CL       0.900000       12.0110           0
     14891 MEMB     130      SOPE     O32      OBL     -0.630000       15.9994           0
     14892 MEMB     130      SOPE     C32      CTL2    -0.220000       12.0110           0
     14893 MEMB     130      SOPE     H2X      HAL2     0.900000E-01   1.00800           0
     14894 MEMB     130      SOPE     H2Y      HAL2     0.900000E-01   1.00800           0
     14895 MEMB     130      SOPE     C23      CTL2    -0.180000       12.0110           0
     14896 MEMB     130      SOPE     H3R      HAL2     0.900000E-01   1.00800           0
     14897 MEMB     130      SOPE     H3S      HAL2     0.900000E-01   1.00800           0
     14898 MEMB     130      SOPE     C24      CTL2    -0.180000       12.0110           0
     14899 MEMB     130      SOPE     H4R      HAL2     0.900000E-01   1.00800           0
     14900 MEMB     130      SOPE     H4S      HAL2     0.900000E-01   1.00800           0
     14901 MEMB     130      SOPE     C25      CTL2    -0.180000       12.0110           0
     14902 MEMB     130      SOPE     H5R      HAL2     0.900000E-01   1.00800           0
     14903 MEMB     130      SOPE     H5S      HAL2     0.900000E-01   1.00800           0
     14904 MEMB     130      SOPE     C26      CTL2    -0.180000       12.0110           0
     14905 MEMB     130      SOPE     H6R      HAL2     0.900000E-01   1.00800           0
     14906 MEMB     130      SOPE     H6S      HAL2     0.900000E-01   1.00800           0
     14907 MEMB     130      SOPE     C27      CTL2    -0.180000       12.0110           0
     14908 MEMB     130      SOPE     H7R      HAL2     0.900000E-01   1.00800           0
     14909 MEMB     130      SOPE     H7S      HAL2     0.900000E-01   1.00800           0
     14910 MEMB     130      SOPE     C28      CTL2    -0.180000       12.0110           0
     14911 MEMB     130      SOPE     H8R      HAL2     0.900000E-01   1.00800           0
     14912 MEMB     130      SOPE     H8S      HAL2     0.900000E-01   1.00800           0
     14913 MEMB     130      SOPE     C29      CEL1    -0.150000       12.0110           0
     14914 MEMB     130      SOPE     H91      HEL1     0.150000       1.00800           0
     14915 MEMB     130      SOPE     C210     CEL1    -0.150000       12.0110           0
     14916 MEMB     130      SOPE     H101     HEL1     0.150000       1.00800           0
     14917 MEMB     130      SOPE     C211     CTL2    -0.180000       12.0110           0
     14918 MEMB     130      SOPE     H11R     HAL2     0.900000E-01   1.00800           0
     14919 MEMB     130      SOPE     H11S     HAL2     0.900000E-01   1.00800           0
     14920 MEMB     130      SOPE     C212     CTL2    -0.180000       12.0110           0
     14921 MEMB     130      SOPE     H12R     HAL2     0.900000E-01   1.00800           0
     14922 MEMB     130      SOPE     H12S     HAL2     0.900000E-01   1.00800           0
     14923 MEMB     130      SOPE     C213     CTL2    -0.180000       12.0110           0
     14924 MEMB     130      SOPE     H13R     HAL2     0.900000E-01   1.00800           0
     14925 MEMB     130      SOPE     H13S     HAL2     0.900000E-01   1.00800           0
     14926 MEMB     130      SOPE     C214     CTL2    -0.180000       12.0110           0
     14927 MEMB     130      SOPE     H14R     HAL2     0.900000E-01   1.00800           0
     14928 MEMB     130      SOPE     H14S     HAL2     0.900000E-01   1.00800           0
     14929 MEMB     130      SOPE     C215     CTL2    -0.180000       12.0110           0
     14930 MEMB     130      SOPE     H15R     HAL2     0.900000E-01   1.00800           0
     14931 MEMB     130      SOPE     H15S     HAL2     0.900000E-01   1.00800           0
     14932 MEMB     130      SOPE     C216     CTL2    -0.180000       12.0110           0
     14933 MEMB     130      SOPE     H16R     HAL2     0.900000E-01   1.00800           0
     14934 MEMB     130      SOPE     H16S     HAL2     0.900000E-01   1.00800           0
     14935 MEMB     130      SOPE     C217     CTL2    -0.180000       12.0110           0
     14936 MEMB     130      SOPE     H17R     HAL2     0.900000E-01   1.00800           0
     14937 MEMB     130      SOPE     H17S     HAL2     0.900000E-01   1.00800           0
     14938 MEMB     130      SOPE     C218     CTL3    -0.270000       12.0110           0
     14939 MEMB     130      SOPE     H18R     HAL3     0.900000E-01   1.00800           0
     14940 MEMB     130      SOPE     H18S     HAL3     0.900000E-01   1.00800           0
     14941 MEMB     130      SOPE     H18T     HAL3     0.900000E-01   1.00800           0
     14942 MEMB     130      SOPE     C33      CTL2    -0.180000       12.0110           0
     14943 MEMB     130      SOPE     H3X      HAL2     0.900000E-01   1.00800           0
     14944 MEMB     130      SOPE     H3Y      HAL2     0.900000E-01   1.00800           0
     14945 MEMB     130      SOPE     C34      CTL2    -0.180000       12.0110           0
     14946 MEMB     130      SOPE     H4X      HAL2     0.900000E-01   1.00800           0
     14947 MEMB     130      SOPE     H4Y      HAL2     0.900000E-01   1.00800           0
     14948 MEMB     130      SOPE     C35      CTL2    -0.180000       12.0110           0
     14949 MEMB     130      SOPE     H5X      HAL2     0.900000E-01   1.00800           0
     14950 MEMB     130      SOPE     H5Y      HAL2     0.900000E-01   1.00800           0
     14951 MEMB     130      SOPE     C36      CTL2    -0.180000       12.0110           0
     14952 MEMB     130      SOPE     H6X      HAL2     0.900000E-01   1.00800           0
     14953 MEMB     130      SOPE     H6Y      HAL2     0.900000E-01   1.00800           0
     14954 MEMB     130      SOPE     C37      CTL2    -0.180000       12.0110           0
     14955 MEMB     130      SOPE     H7X      HAL2     0.900000E-01   1.00800           0
     14956 MEMB     130      SOPE     H7Y      HAL2     0.900000E-01   1.00800           0
     14957 MEMB     130      SOPE     C38      CTL2    -0.180000       12.0110           0
     14958 MEMB     130      SOPE     H8X      HAL2     0.900000E-01   1.00800           0
     14959 MEMB     130      SOPE     H8Y      HAL2     0.900000E-01   1.00800           0
     14960 MEMB     130      SOPE     C39      CTL2    -0.180000       12.0110           0
     14961 MEMB     130      SOPE     H9X      HAL2     0.900000E-01   1.00800           0
     14962 MEMB     130      SOPE     H9Y      HAL2     0.900000E-01   1.00800           0
     14963 MEMB     130      SOPE     C310     CTL2    -0.180000       12.0110           0
     14964 MEMB     130      SOPE     H10X     HAL2     0.900000E-01   1.00800           0
     14965 MEMB     130      SOPE     H10Y     HAL2     0.900000E-01   1.00800           0
     14966 MEMB     130      SOPE     C311     CTL2    -0.180000       12.0110           0
     14967 MEMB     130      SOPE     H11X     HAL2     0.900000E-01   1.00800           0
     14968 MEMB     130      SOPE     H11Y     HAL2     0.900000E-01   1.00800           0
     14969 MEMB     130      SOPE     C312     CTL2    -0.180000       12.0110           0
     14970 MEMB     130      SOPE     H12X     HAL2     0.900000E-01   1.00800           0
     14971 MEMB     130      SOPE     H12Y     HAL2     0.900000E-01   1.00800           0
     14972 MEMB     130      SOPE     C313     CTL2    -0.180000       12.0110           0
     14973 MEMB     130      SOPE     H13X     HAL2     0.900000E-01   1.00800           0
     14974 MEMB     130      SOPE     H13Y     HAL2     0.900000E-01   1.00800           0
     14975 MEMB     130      SOPE     C314     CTL2    -0.180000       12.0110           0
     14976 MEMB     130      SOPE     H14X     HAL2     0.900000E-01   1.00800           0
     14977 MEMB     130      SOPE     H14Y     HAL2     0.900000E-01   1.00800           0
     14978 MEMB     130      SOPE     C315     CTL2    -0.180000       12.0110           0
     14979 MEMB     130      SOPE     H15X     HAL2     0.900000E-01   1.00800           0
     14980 MEMB     130      SOPE     H15Y     HAL2     0.900000E-01   1.00800           0
     14981 MEMB     130      SOPE     C316     CTL2    -0.180000       12.0110           0
     14982 MEMB     130      SOPE     H16X     HAL2     0.900000E-01   1.00800           0
     14983 MEMB     130      SOPE     H16Y     HAL2     0.900000E-01   1.00800           0
     14984 MEMB     130      SOPE     C317     CTL2    -0.180000       12.0110           0
     14985 MEMB     130      SOPE     H17X     HAL2     0.900000E-01   1.00800           0
     14986 MEMB     130      SOPE     H17Y     HAL2     0.900000E-01   1.00800           0
     14987 MEMB     130      SOPE     C318     CTL3    -0.270000       12.0110           0
     14988 MEMB     130      SOPE     H18X     HAL3     0.900000E-01   1.00800           0
     14989 MEMB     130      SOPE     H18Y     HAL3     0.900000E-01   1.00800           0
     14990 MEMB     130      SOPE     H18Z     HAL3     0.900000E-01   1.00800           0
     14991 MEMB     131      OSM      N        NTL     -0.600000       14.0070           0
     14992 MEMB     131      OSM      C15      CTL5    -0.350000       12.0110           0
     14993 MEMB     131      OSM      H15A     HL       0.250000       1.00800           0
     14994 MEMB     131      OSM      H15B     HL       0.250000       1.00800           0
     14995 MEMB     131      OSM      H15C     HL       0.250000       1.00800           0
     14996 MEMB     131      OSM      C14      CTL5    -0.350000       12.0110           0
     14997 MEMB     131      OSM      H14A     HL       0.250000       1.00800           0
     14998 MEMB     131      OSM      H14B     HL       0.250000       1.00800           0
     14999 MEMB     131      OSM      H14C     HL       0.250000       1.00800           0
     15000 MEMB     131      OSM      C13      CTL5    -0.350000       12.0110           0
     15001 MEMB     131      OSM      H13A     HL       0.250000       1.00800           0
     15002 MEMB     131      OSM      H13B     HL       0.250000       1.00800           0
     15003 MEMB     131      OSM      H13C     HL       0.250000       1.00800           0
     15004 MEMB     131      OSM      C12      CTL2    -0.100000       12.0110           0
     15005 MEMB     131      OSM      H12A     HL       0.250000       1.00800           0
     15006 MEMB     131      OSM      H12B     HL       0.250000       1.00800           0
     15007 MEMB     131      OSM      C11      CTL2    -0.800000E-01   12.0110           0
     15008 MEMB     131      OSM      H11A     HAL2     0.900000E-01   1.00800           0
     15009 MEMB     131      OSM      H11B     HAL2     0.900000E-01   1.00800           0
     15010 MEMB     131      OSM      P        PL        1.50000       30.9740           0
     15011 MEMB     131      OSM      O13      O2L     -0.780000       15.9994           0
     15012 MEMB     131      OSM      O14      O2L     -0.780000       15.9994           0
     15013 MEMB     131      OSM      O11      OSLP    -0.570000       15.9994           0
     15014 MEMB     131      OSM      O12      OSLP    -0.570000       15.9994           0
     15015 MEMB     131      OSM      C1S      CTL2    -0.800000E-01   12.0110           0
     15016 MEMB     131      OSM      H1S      HAL2     0.900000E-01   1.00800           0
     15017 MEMB     131      OSM      H1T      HAL2     0.900000E-01   1.00800           0
     15018 MEMB     131      OSM      NF       NHL     -0.700000       14.0070           0
     15019 MEMB     131      OSM      HNF      H        0.350000       1.00800           0
     15020 MEMB     131      OSM      C2S      CTL1     0.300000       12.0110           0
     15021 MEMB     131      OSM      H2S      HAL1     0.500000E-01   1.00800           0
     15022 MEMB     131      OSM      C3S      CTO1     0.500000       12.0110           0
     15023 MEMB     131      OSM      H3S      HAL1    -0.110000       1.00800           0
     15024 MEMB     131      OSM      O3       OHL     -0.690000       15.9994           0
     15025 MEMB     131      OSM      HO3      HOL      0.300000       1.00800           0
     15026 MEMB     131      OSM      C4S      CEL3    -0.150000       12.0110           0
     15027 MEMB     131      OSM      H4S      HEL1     0.150000       1.00800           0
     15028 MEMB     131      OSM      C5S      CEL3    -0.150000       12.0110           0
     15029 MEMB     131      OSM      H5S      HEL1     0.150000       1.00800           0
     15030 MEMB     131      OSM      C6S      CTL2    -0.180000       12.0110           0
     15031 MEMB     131      OSM      H6S      HAL2     0.900000E-01   1.00800           0
     15032 MEMB     131      OSM      H6T      HAL2     0.900000E-01   1.00800           0
     15033 MEMB     131      OSM      C7S      CTL2    -0.180000       12.0110           0
     15034 MEMB     131      OSM      H7S      HAL2     0.900000E-01   1.00800           0
     15035 MEMB     131      OSM      H7T      HAL2     0.900000E-01   1.00800           0
     15036 MEMB     131      OSM      C8S      CTL2    -0.180000       12.0110           0
     15037 MEMB     131      OSM      H8S      HAL2     0.900000E-01   1.00800           0
     15038 MEMB     131      OSM      H8T      HAL2     0.900000E-01   1.00800           0
     15039 MEMB     131      OSM      C9S      CTL2    -0.180000       12.0110           0
     15040 MEMB     131      OSM      H9S      HAL2     0.900000E-01   1.00800           0
     15041 MEMB     131      OSM      H9T      HAL2     0.900000E-01   1.00800           0
     15042 MEMB     131      OSM      C10S     CTL2    -0.180000       12.0110           0
     15043 MEMB     131      OSM      H10S     HAL2     0.900000E-01   1.00800           0
     15044 MEMB     131      OSM      H10T     HAL2     0.900000E-01   1.00800           0
     15045 MEMB     131      OSM      C11S     CTL2    -0.180000       12.0110           0
     15046 MEMB     131      OSM      H11S     HAL2     0.900000E-01   1.00800           0
     15047 MEMB     131      OSM      H11T     HAL2     0.900000E-01   1.00800           0
     15048 MEMB     131      OSM      C12S     CTL2    -0.180000       12.0110           0
     15049 MEMB     131      OSM      H12S     HAL2     0.900000E-01   1.00800           0
     15050 MEMB     131      OSM      H12T     HAL2     0.900000E-01   1.00800           0
     15051 MEMB     131      OSM      C13S     CTL2    -0.180000       12.0110           0
     15052 MEMB     131      OSM      H13S     HAL2     0.900000E-01   1.00800           0
     15053 MEMB     131      OSM      H13T     HAL2     0.900000E-01   1.00800           0
     15054 MEMB     131      OSM      C14S     CTL2    -0.180000       12.0110           0
     15055 MEMB     131      OSM      H14S     HAL2     0.900000E-01   1.00800           0
     15056 MEMB     131      OSM      H14T     HAL2     0.900000E-01   1.00800           0
     15057 MEMB     131      OSM      C15S     CTL2    -0.180000       12.0110           0
     15058 MEMB     131      OSM      H15S     HAL2     0.900000E-01   1.00800           0
     15059 MEMB     131      OSM      H15T     HAL2     0.900000E-01   1.00800           0
     15060 MEMB     131      OSM      C16S     CTL2    -0.180000       12.0110           0
     15061 MEMB     131      OSM      H16S     HAL2     0.900000E-01   1.00800           0
     15062 MEMB     131      OSM      H16T     HAL2     0.900000E-01   1.00800           0
     15063 MEMB     131      OSM      C17S     CTL2    -0.180000       12.0110           0
     15064 MEMB     131      OSM      H17S     HAL2     0.900000E-01   1.00800           0
     15065 MEMB     131      OSM      H17T     HAL2     0.900000E-01   1.00800           0
     15066 MEMB     131      OSM      C18S     CTL3    -0.270000       12.0110           0
     15067 MEMB     131      OSM      H18S     HAL3     0.900000E-01   1.00800           0
     15068 MEMB     131      OSM      H18T     HAL3     0.900000E-01   1.00800           0
     15069 MEMB     131      OSM      H18U     HAL3     0.900000E-01   1.00800           0
     15070 MEMB     131      OSM      C1F      C        0.550000       12.0110           0
     15071 MEMB     131      OSM      OF       O       -0.600000       15.9994           0
     15072 MEMB     131      OSM      C2F      CTL2    -0.700000E-01   12.0110           0
     15073 MEMB     131      OSM      H2F      HAL2     0.600000E-01   1.00800           0
     15074 MEMB     131      OSM      H2G      HAL2     0.600000E-01   1.00800           0
     15075 MEMB     131      OSM      C3F      CTL2    -0.180000       12.0110           0
     15076 MEMB     131      OSM      H3F      HAL2     0.900000E-01   1.00800           0
     15077 MEMB     131      OSM      H3G      HAL2     0.900000E-01   1.00800           0
     15078 MEMB     131      OSM      C4F      CTL2    -0.180000       12.0110           0
     15079 MEMB     131      OSM      H4F      HAL2     0.900000E-01   1.00800           0
     15080 MEMB     131      OSM      H4G      HAL2     0.900000E-01   1.00800           0
     15081 MEMB     131      OSM      C5F      CTL2    -0.180000       12.0110           0
     15082 MEMB     131      OSM      H5F      HAL2     0.900000E-01   1.00800           0
     15083 MEMB     131      OSM      H5G      HAL2     0.900000E-01   1.00800           0
     15084 MEMB     131      OSM      C6F      CTL2    -0.180000       12.0110           0
     15085 MEMB     131      OSM      H6F      HAL2     0.900000E-01   1.00800           0
     15086 MEMB     131      OSM      H6G      HAL2     0.900000E-01   1.00800           0
     15087 MEMB     131      OSM      C7F      CTL2    -0.180000       12.0110           0
     15088 MEMB     131      OSM      H7F      HAL2     0.900000E-01   1.00800           0
     15089 MEMB     131      OSM      H7G      HAL2     0.900000E-01   1.00800           0
     15090 MEMB     131      OSM      C8F      CTL2    -0.180000       12.0110           0
     15091 MEMB     131      OSM      H8F      HAL2     0.900000E-01   1.00800           0
     15092 MEMB     131      OSM      H8G      HAL2     0.900000E-01   1.00800           0
     15093 MEMB     131      OSM      C9F      CEL1    -0.150000       12.0110           0
     15094 MEMB     131      OSM      H9F      HEL1     0.150000       1.00800           0
     15095 MEMB     131      OSM      C10F     CEL1    -0.150000       12.0110           0
     15096 MEMB     131      OSM      H10F     HEL1     0.150000       1.00800           0
     15097 MEMB     131      OSM      C11F     CTL2    -0.180000       12.0110           0
     15098 MEMB     131      OSM      H11F     HAL2     0.900000E-01   1.00800           0
     15099 MEMB     131      OSM      H11G     HAL2     0.900000E-01   1.00800           0
     15100 MEMB     131      OSM      C12F     CTL2    -0.180000       12.0110           0
     15101 MEMB     131      OSM      H12F     HAL2     0.900000E-01   1.00800           0
     15102 MEMB     131      OSM      H12G     HAL2     0.900000E-01   1.00800           0
     15103 MEMB     131      OSM      C13F     CTL2    -0.180000       12.0110           0
     15104 MEMB     131      OSM      H13F     HAL2     0.900000E-01   1.00800           0
     15105 MEMB     131      OSM      H13G     HAL2     0.900000E-01   1.00800           0
     15106 MEMB     131      OSM      C14F     CTL2    -0.180000       12.0110           0
     15107 MEMB     131      OSM      H14F     HAL2     0.900000E-01   1.00800           0
     15108 MEMB     131      OSM      H14G     HAL2     0.900000E-01   1.00800           0
     15109 MEMB     131      OSM      C15F     CTL2    -0.180000       12.0110           0
     15110 MEMB     131      OSM      H15F     HAL2     0.900000E-01   1.00800           0
     15111 MEMB     131      OSM      H15G     HAL2     0.900000E-01   1.00800           0
     15112 MEMB     131      OSM      C16F     CTL2    -0.180000       12.0110           0
     15113 MEMB     131      OSM      H16F     HAL2     0.900000E-01   1.00800           0
     15114 MEMB     131      OSM      H16G     HAL2     0.900000E-01   1.00800           0
     15115 MEMB     131      OSM      C17F     CTL2    -0.180000       12.0110           0
     15116 MEMB     131      OSM      H17F     HAL2     0.900000E-01   1.00800           0
     15117 MEMB     131      OSM      H17G     HAL2     0.900000E-01   1.00800           0
     15118 MEMB     131      OSM      C18F     CTL3    -0.270000       12.0110           0
     15119 MEMB     131      OSM      H18F     HAL3     0.900000E-01   1.00800           0
     15120 MEMB     131      OSM      H18G     HAL3     0.900000E-01   1.00800           0
     15121 MEMB     131      OSM      H18H     HAL3     0.900000E-01   1.00800           0
     15122 MEMB     132      CHL1     C3       CRL1     0.140000       12.0110           0
     15123 MEMB     132      CHL1     H3       HGA1     0.900000E-01   1.00800           0
     15124 MEMB     132      CHL1     O3       OHL     -0.660000       15.9994           0
     15125 MEMB     132      CHL1     H3'      HOL      0.430000       1.00800           0
     15126 MEMB     132      CHL1     C4       CRL2    -0.180000       12.0110           0
     15127 MEMB     132      CHL1     H4A      HGA2     0.900000E-01   1.00800           0
     15128 MEMB     132      CHL1     H4B      HGA2     0.900000E-01   1.00800           0
     15129 MEMB     132      CHL1     C5       CEL1      0.00000       12.0110           0
     15130 MEMB     132      CHL1     C6       CEL1    -0.150000       12.0110           0
     15131 MEMB     132      CHL1     H6       HEL1     0.150000       1.00800           0
     15132 MEMB     132      CHL1     C7       CRL2    -0.180000       12.0110           0
     15133 MEMB     132      CHL1     H7A      HGA2     0.900000E-01   1.00800           0
     15134 MEMB     132      CHL1     H7B      HGA2     0.900000E-01   1.00800           0
     15135 MEMB     132      CHL1     C8       CRL1    -0.900000E-01   12.0110           0
     15136 MEMB     132      CHL1     H8       HGA1     0.900000E-01   1.00800           0
     15137 MEMB     132      CHL1     C14      CRL1    -0.900000E-01   12.0110           0
     15138 MEMB     132      CHL1     H14      HGA1     0.900000E-01   1.00800           0
     15139 MEMB     132      CHL1     C15      CRL2    -0.180000       12.0110           0
     15140 MEMB     132      CHL1     H15A     HGA2     0.900000E-01   1.00800           0
     15141 MEMB     132      CHL1     H15B     HGA2     0.900000E-01   1.00800           0
     15142 MEMB     132      CHL1     C16      CRL2    -0.180000       12.0110           0
     15143 MEMB     132      CHL1     H16A     HGA2     0.900000E-01   1.00800           0
     15144 MEMB     132      CHL1     H16B     HGA2     0.900000E-01   1.00800           0
     15145 MEMB     132      CHL1     C17      CRL1    -0.900000E-01   12.0110           0
     15146 MEMB     132      CHL1     H17      HGA1     0.900000E-01   1.00800           0
     15147 MEMB     132      CHL1     C13      CRL1      0.00000       12.0110           0
     15148 MEMB     132      CHL1     C18      CTL3    -0.270000       12.0110           0
     15149 MEMB     132      CHL1     H18A     HAL3     0.900000E-01   1.00800           0
     15150 MEMB     132      CHL1     H18B     HAL3     0.900000E-01   1.00800           0
     15151 MEMB     132      CHL1     H18C     HAL3     0.900000E-01   1.00800           0
     15152 MEMB     132      CHL1     C12      CRL2    -0.180000       12.0110           0
     15153 MEMB     132      CHL1     H12A     HGA2     0.900000E-01   1.00800           0
     15154 MEMB     132      CHL1     H12B     HGA2     0.900000E-01   1.00800           0
     15155 MEMB     132      CHL1     C11      CRL2    -0.180000       12.0110           0
     15156 MEMB     132      CHL1     H11A     HGA2     0.900000E-01   1.00800           0
     15157 MEMB     132      CHL1     H11B     HGA2     0.900000E-01   1.00800           0
     15158 MEMB     132      CHL1     C9       CRL1    -0.900000E-01   12.0110           0
     15159 MEMB     132      CHL1     H9       HGA1     0.900000E-01   1.00800           0
     15160 MEMB     132      CHL1     C10      CRL1      0.00000       12.0110           0
     15161 MEMB     132      CHL1     C19      CTL3    -0.270000       12.0110           0
     15162 MEMB     132      CHL1     H19A     HAL3     0.900000E-01   1.00800           0
     15163 MEMB     132      CHL1     H19B     HAL3     0.900000E-01   1.00800           0
     15164 MEMB     132      CHL1     H19C     HAL3     0.900000E-01   1.00800           0
     15165 MEMB     132      CHL1     C1       CRL2    -0.180000       12.0110           0
     15166 MEMB     132      CHL1     H1A      HGA2     0.900000E-01   1.00800           0
     15167 MEMB     132      CHL1     H1B      HGA2     0.900000E-01   1.00800           0
     15168 MEMB     132      CHL1     C2       CRL2    -0.180000       12.0110           0
     15169 MEMB     132      CHL1     H2A      HGA2     0.900000E-01   1.00800           0
     15170 MEMB     132      CHL1     H2B      HGA2     0.900000E-01   1.00800           0
     15171 MEMB     132      CHL1     C20      CTL1    -0.900000E-01   12.0110           0
     15172 MEMB     132      CHL1     H20      HAL1     0.900000E-01   1.00800           0
     15173 MEMB     132      CHL1     C21      CTL3    -0.270000       12.0110           0
     15174 MEMB     132      CHL1     H21A     HAL3     0.900000E-01   1.00800           0
     15175 MEMB     132      CHL1     H21B     HAL3     0.900000E-01   1.00800           0
     15176 MEMB     132      CHL1     H21C     HAL3     0.900000E-01   1.00800           0
     15177 MEMB     132      CHL1     C22      CTL2    -0.180000       12.0110           0
     15178 MEMB     132      CHL1     H22A     HAL2     0.900000E-01   1.00800           0
     15179 MEMB     132      CHL1     H22B     HAL2     0.900000E-01   1.00800           0
     15180 MEMB     132      CHL1     C23      CTL2    -0.180000       12.0110           0
     15181 MEMB     132      CHL1     H23A     HAL2     0.900000E-01   1.00800           0
     15182 MEMB     132      CHL1     H23B     HAL2     0.900000E-01   1.00800           0
     15183 MEMB     132      CHL1     C24      CTL2    -0.180000       12.0110           0
     15184 MEMB     132      CHL1     H24A     HAL2     0.900000E-01   1.00800           0
     15185 MEMB     132      CHL1     H24B     HAL2     0.900000E-01   1.00800           0
     15186 MEMB     132      CHL1     C25      CTL1    -0.900000E-01   12.0110           0
     15187 MEMB     132      CHL1     H25      HAL1     0.900000E-01   1.00800           0
     15188 MEMB     132      CHL1     C26      CTL3    -0.270000       12.0110           0
     15189 MEMB     132      CHL1     H26A     HAL3     0.900000E-01   1.00800           0
     15190 MEMB     132      CHL1     H26B     HAL3     0.900000E-01   1.00800           0
     15191 MEMB     132      CHL1     H26C     HAL3     0.900000E-01   1.00800           0
     15192 MEMB     132      CHL1     C27      CTL3    -0.270000       12.0110           0
     15193 MEMB     132      CHL1     H27A     HAL3     0.900000E-01   1.00800           0
     15194 MEMB     132      CHL1     H27B     HAL3     0.900000E-01   1.00800           0
     15195 MEMB     132      CHL1     H27C     HAL3     0.900000E-01   1.00800           0
     15196 MEMB     133      POPC     N        NTL     -0.600000       14.0070           0
     15197 MEMB     133      POPC     C12      CTL2    -0.100000       12.0110           0
     15198 MEMB     133      POPC     H12A     HL       0.250000       1.00800           0
     15199 MEMB     133      POPC     H12B     HL       0.250000       1.00800           0
     15200 MEMB     133      POPC     C13      CTL5    -0.350000       12.0110           0
     15201 MEMB     133      POPC     H13A     HL       0.250000       1.00800           0
     15202 MEMB     133      POPC     H13B     HL       0.250000       1.00800           0
     15203 MEMB     133      POPC     H13C     HL       0.250000       1.00800           0
     15204 MEMB     133      POPC     C14      CTL5    -0.350000       12.0110           0
     15205 MEMB     133      POPC     H14A     HL       0.250000       1.00800           0
     15206 MEMB     133      POPC     H14B     HL       0.250000       1.00800           0
     15207 MEMB     133      POPC     H14C     HL       0.250000       1.00800           0
     15208 MEMB     133      POPC     C15      CTL5    -0.350000       12.0110           0
     15209 MEMB     133      POPC     H15A     HL       0.250000       1.00800           0
     15210 MEMB     133      POPC     H15B     HL       0.250000       1.00800           0
     15211 MEMB     133      POPC     H15C     HL       0.250000       1.00800           0
     15212 MEMB     133      POPC     C11      CTL2    -0.800000E-01   12.0110           0
     15213 MEMB     133      POPC     H11A     HAL2     0.900000E-01   1.00800           0
     15214 MEMB     133      POPC     H11B     HAL2     0.900000E-01   1.00800           0
     15215 MEMB     133      POPC     P        PL        1.50000       30.9740           0
     15216 MEMB     133      POPC     O13      O2L     -0.780000       15.9994           0
     15217 MEMB     133      POPC     O14      O2L     -0.780000       15.9994           0
     15218 MEMB     133      POPC     O12      OSLP    -0.570000       15.9994           0
     15219 MEMB     133      POPC     O11      OSLP    -0.570000       15.9994           0
     15220 MEMB     133      POPC     C1       CTL2    -0.800000E-01   12.0110           0
     15221 MEMB     133      POPC     HA       HAL2     0.900000E-01   1.00800           0
     15222 MEMB     133      POPC     HB       HAL2     0.900000E-01   1.00800           0
     15223 MEMB     133      POPC     C2       CTL1     0.170000       12.0110           0
     15224 MEMB     133      POPC     HS       HAL1     0.900000E-01   1.00800           0
     15225 MEMB     133      POPC     O21      OSL     -0.490000       15.9994           0
     15226 MEMB     133      POPC     C21      CL       0.900000       12.0110           0
     15227 MEMB     133      POPC     O22      OBL     -0.630000       15.9994           0
     15228 MEMB     133      POPC     C22      CTL2    -0.220000       12.0110           0
     15229 MEMB     133      POPC     H2R      HAL2     0.900000E-01   1.00800           0
     15230 MEMB     133      POPC     H2S      HAL2     0.900000E-01   1.00800           0
     15231 MEMB     133      POPC     C3       CTL2     0.800000E-01   12.0110           0
     15232 MEMB     133      POPC     HX       HAL2     0.900000E-01   1.00800           0
     15233 MEMB     133      POPC     HY       HAL2     0.900000E-01   1.00800           0
     15234 MEMB     133      POPC     O31      OSL     -0.490000       15.9994           0
     15235 MEMB     133      POPC     C31      CL       0.900000       12.0110           0
     15236 MEMB     133      POPC     O32      OBL     -0.630000       15.9994           0
     15237 MEMB     133      POPC     C32      CTL2    -0.220000       12.0110           0
     15238 MEMB     133      POPC     H2X      HAL2     0.900000E-01   1.00800           0
     15239 MEMB     133      POPC     H2Y      HAL2     0.900000E-01   1.00800           0
     15240 MEMB     133      POPC     C23      CTL2    -0.180000       12.0110           0
     15241 MEMB     133      POPC     H3R      HAL2     0.900000E-01   1.00800           0
     15242 MEMB     133      POPC     H3S      HAL2     0.900000E-01   1.00800           0
     15243 MEMB     133      POPC     C24      CTL2    -0.180000       12.0110           0
     15244 MEMB     133      POPC     H4R      HAL2     0.900000E-01   1.00800           0
     15245 MEMB     133      POPC     H4S      HAL2     0.900000E-01   1.00800           0
     15246 MEMB     133      POPC     C25      CTL2    -0.180000       12.0110           0
     15247 MEMB     133      POPC     H5R      HAL2     0.900000E-01   1.00800           0
     15248 MEMB     133      POPC     H5S      HAL2     0.900000E-01   1.00800           0
     15249 MEMB     133      POPC     C26      CTL2    -0.180000       12.0110           0
     15250 MEMB     133      POPC     H6R      HAL2     0.900000E-01   1.00800           0
     15251 MEMB     133      POPC     H6S      HAL2     0.900000E-01   1.00800           0
     15252 MEMB     133      POPC     C27      CTL2    -0.180000       12.0110           0
     15253 MEMB     133      POPC     H7R      HAL2     0.900000E-01   1.00800           0
     15254 MEMB     133      POPC     H7S      HAL2     0.900000E-01   1.00800           0
     15255 MEMB     133      POPC     C28      CTL2    -0.180000       12.0110           0
     15256 MEMB     133      POPC     H8R      HAL2     0.900000E-01   1.00800           0
     15257 MEMB     133      POPC     H8S      HAL2     0.900000E-01   1.00800           0
     15258 MEMB     133      POPC     C29      CEL1    -0.150000       12.0110           0
     15259 MEMB     133      POPC     H91      HEL1     0.150000       1.00800           0
     15260 MEMB     133      POPC     C210     CEL1    -0.150000       12.0110           0
     15261 MEMB     133      POPC     H101     HEL1     0.150000       1.00800           0
     15262 MEMB     133      POPC     C211     CTL2    -0.180000       12.0110           0
     15263 MEMB     133      POPC     H11R     HAL2     0.900000E-01   1.00800           0
     15264 MEMB     133      POPC     H11S     HAL2     0.900000E-01   1.00800           0
     15265 MEMB     133      POPC     C212     CTL2    -0.180000       12.0110           0
     15266 MEMB     133      POPC     H12R     HAL2     0.900000E-01   1.00800           0
     15267 MEMB     133      POPC     H12S     HAL2     0.900000E-01   1.00800           0
     15268 MEMB     133      POPC     C213     CTL2    -0.180000       12.0110           0
     15269 MEMB     133      POPC     H13R     HAL2     0.900000E-01   1.00800           0
     15270 MEMB     133      POPC     H13S     HAL2     0.900000E-01   1.00800           0
     15271 MEMB     133      POPC     C214     CTL2    -0.180000       12.0110           0
     15272 MEMB     133      POPC     H14R     HAL2     0.900000E-01   1.00800           0
     15273 MEMB     133      POPC     H14S     HAL2     0.900000E-01   1.00800           0
     15274 MEMB     133      POPC     C215     CTL2    -0.180000       12.0110           0
     15275 MEMB     133      POPC     H15R     HAL2     0.900000E-01   1.00800           0
     15276 MEMB     133      POPC     H15S     HAL2     0.900000E-01   1.00800           0
     15277 MEMB     133      POPC     C216     CTL2    -0.180000       12.0110           0
     15278 MEMB     133      POPC     H16R     HAL2     0.900000E-01   1.00800           0
     15279 MEMB     133      POPC     H16S     HAL2     0.900000E-01   1.00800           0
     15280 MEMB     133      POPC     C217     CTL2    -0.180000       12.0110           0
     15281 MEMB     133      POPC     H17R     HAL2     0.900000E-01   1.00800           0
     15282 MEMB     133      POPC     H17S     HAL2     0.900000E-01   1.00800           0
     15283 MEMB     133      POPC     C218     CTL3    -0.270000       12.0110           0
     15284 MEMB     133      POPC     H18R     HAL3     0.900000E-01   1.00800           0
     15285 MEMB     133      POPC     H18S     HAL3     0.900000E-01   1.00800           0
     15286 MEMB     133      POPC     H18T     HAL3     0.900000E-01   1.00800           0
     15287 MEMB     133      POPC     C33      CTL2    -0.180000       12.0110           0
     15288 MEMB     133      POPC     H3X      HAL2     0.900000E-01   1.00800           0
     15289 MEMB     133      POPC     H3Y      HAL2     0.900000E-01   1.00800           0
     15290 MEMB     133      POPC     C34      CTL2    -0.180000       12.0110           0
     15291 MEMB     133      POPC     H4X      HAL2     0.900000E-01   1.00800           0
     15292 MEMB     133      POPC     H4Y      HAL2     0.900000E-01   1.00800           0
     15293 MEMB     133      POPC     C35      CTL2    -0.180000       12.0110           0
     15294 MEMB     133      POPC     H5X      HAL2     0.900000E-01   1.00800           0
     15295 MEMB     133      POPC     H5Y      HAL2     0.900000E-01   1.00800           0
     15296 MEMB     133      POPC     C36      CTL2    -0.180000       12.0110           0
     15297 MEMB     133      POPC     H6X      HAL2     0.900000E-01   1.00800           0
     15298 MEMB     133      POPC     H6Y      HAL2     0.900000E-01   1.00800           0
     15299 MEMB     133      POPC     C37      CTL2    -0.180000       12.0110           0
     15300 MEMB     133      POPC     H7X      HAL2     0.900000E-01   1.00800           0
     15301 MEMB     133      POPC     H7Y      HAL2     0.900000E-01   1.00800           0
     15302 MEMB     133      POPC     C38      CTL2    -0.180000       12.0110           0
     15303 MEMB     133      POPC     H8X      HAL2     0.900000E-01   1.00800           0
     15304 MEMB     133      POPC     H8Y      HAL2     0.900000E-01   1.00800           0
     15305 MEMB     133      POPC     C39      CTL2    -0.180000       12.0110           0
     15306 MEMB     133      POPC     H9X      HAL2     0.900000E-01   1.00800           0
     15307 MEMB     133      POPC     H9Y      HAL2     0.900000E-01   1.00800           0
     15308 MEMB     133      POPC     C310     CTL2    -0.180000       12.0110           0
     15309 MEMB     133      POPC     H10X     HAL2     0.900000E-01   1.00800           0
     15310 MEMB     133      POPC     H10Y     HAL2     0.900000E-01   1.00800           0
     15311 MEMB     133      POPC     C311     CTL2    -0.180000       12.0110           0
     15312 MEMB     133      POPC     H11X     HAL2     0.900000E-01   1.00800           0
     15313 MEMB     133      POPC     H11Y     HAL2     0.900000E-01   1.00800           0
     15314 MEMB     133      POPC     C312     CTL2    -0.180000       12.0110           0
     15315 MEMB     133      POPC     H12X     HAL2     0.900000E-01   1.00800           0
     15316 MEMB     133      POPC     H12Y     HAL2     0.900000E-01   1.00800           0
     15317 MEMB     133      POPC     C313     CTL2    -0.180000       12.0110           0
     15318 MEMB     133      POPC     H13X     HAL2     0.900000E-01   1.00800           0
     15319 MEMB     133      POPC     H13Y     HAL2     0.900000E-01   1.00800           0
     15320 MEMB     133      POPC     C314     CTL2    -0.180000       12.0110           0
     15321 MEMB     133      POPC     H14X     HAL2     0.900000E-01   1.00800           0
     15322 MEMB     133      POPC     H14Y     HAL2     0.900000E-01   1.00800           0
     15323 MEMB     133      POPC     C315     CTL2    -0.180000       12.0110           0
     15324 MEMB     133      POPC     H15X     HAL2     0.900000E-01   1.00800           0
     15325 MEMB     133      POPC     H15Y     HAL2     0.900000E-01   1.00800           0
     15326 MEMB     133      POPC     C316     CTL3    -0.270000       12.0110           0
     15327 MEMB     133      POPC     H16X     HAL3     0.900000E-01   1.00800           0
     15328 MEMB     133      POPC     H16Y     HAL3     0.900000E-01   1.00800           0
     15329 MEMB     133      POPC     H16Z     HAL3     0.900000E-01   1.00800           0
     15330 MEMB     134      OSM      N        NTL     -0.600000       14.0070           0
     15331 MEMB     134      OSM      C15      CTL5    -0.350000       12.0110           0
     15332 MEMB     134      OSM      H15A     HL       0.250000       1.00800           0
     15333 MEMB     134      OSM      H15B     HL       0.250000       1.00800           0
     15334 MEMB     134      OSM      H15C     HL       0.250000       1.00800           0
     15335 MEMB     134      OSM      C14      CTL5    -0.350000       12.0110           0
     15336 MEMB     134      OSM      H14A     HL       0.250000       1.00800           0
     15337 MEMB     134      OSM      H14B     HL       0.250000       1.00800           0
     15338 MEMB     134      OSM      H14C     HL       0.250000       1.00800           0
     15339 MEMB     134      OSM      C13      CTL5    -0.350000       12.0110           0
     15340 MEMB     134      OSM      H13A     HL       0.250000       1.00800           0
     15341 MEMB     134      OSM      H13B     HL       0.250000       1.00800           0
     15342 MEMB     134      OSM      H13C     HL       0.250000       1.00800           0
     15343 MEMB     134      OSM      C12      CTL2    -0.100000       12.0110           0
     15344 MEMB     134      OSM      H12A     HL       0.250000       1.00800           0
     15345 MEMB     134      OSM      H12B     HL       0.250000       1.00800           0
     15346 MEMB     134      OSM      C11      CTL2    -0.800000E-01   12.0110           0
     15347 MEMB     134      OSM      H11A     HAL2     0.900000E-01   1.00800           0
     15348 MEMB     134      OSM      H11B     HAL2     0.900000E-01   1.00800           0
     15349 MEMB     134      OSM      P        PL        1.50000       30.9740           0
     15350 MEMB     134      OSM      O13      O2L     -0.780000       15.9994           0
     15351 MEMB     134      OSM      O14      O2L     -0.780000       15.9994           0
     15352 MEMB     134      OSM      O11      OSLP    -0.570000       15.9994           0
     15353 MEMB     134      OSM      O12      OSLP    -0.570000       15.9994           0
     15354 MEMB     134      OSM      C1S      CTL2    -0.800000E-01   12.0110           0
     15355 MEMB     134      OSM      H1S      HAL2     0.900000E-01   1.00800           0
     15356 MEMB     134      OSM      H1T      HAL2     0.900000E-01   1.00800           0
     15357 MEMB     134      OSM      NF       NHL     -0.700000       14.0070           0
     15358 MEMB     134      OSM      HNF      H        0.350000       1.00800           0
     15359 MEMB     134      OSM      C2S      CTL1     0.300000       12.0110           0
     15360 MEMB     134      OSM      H2S      HAL1     0.500000E-01   1.00800           0
     15361 MEMB     134      OSM      C3S      CTO1     0.500000       12.0110           0
     15362 MEMB     134      OSM      H3S      HAL1    -0.110000       1.00800           0
     15363 MEMB     134      OSM      O3       OHL     -0.690000       15.9994           0
     15364 MEMB     134      OSM      HO3      HOL      0.300000       1.00800           0
     15365 MEMB     134      OSM      C4S      CEL3    -0.150000       12.0110           0
     15366 MEMB     134      OSM      H4S      HEL1     0.150000       1.00800           0
     15367 MEMB     134      OSM      C5S      CEL3    -0.150000       12.0110           0
     15368 MEMB     134      OSM      H5S      HEL1     0.150000       1.00800           0
     15369 MEMB     134      OSM      C6S      CTL2    -0.180000       12.0110           0
     15370 MEMB     134      OSM      H6S      HAL2     0.900000E-01   1.00800           0
     15371 MEMB     134      OSM      H6T      HAL2     0.900000E-01   1.00800           0
     15372 MEMB     134      OSM      C7S      CTL2    -0.180000       12.0110           0
     15373 MEMB     134      OSM      H7S      HAL2     0.900000E-01   1.00800           0
     15374 MEMB     134      OSM      H7T      HAL2     0.900000E-01   1.00800           0
     15375 MEMB     134      OSM      C8S      CTL2    -0.180000       12.0110           0
     15376 MEMB     134      OSM      H8S      HAL2     0.900000E-01   1.00800           0
     15377 MEMB     134      OSM      H8T      HAL2     0.900000E-01   1.00800           0
     15378 MEMB     134      OSM      C9S      CTL2    -0.180000       12.0110           0
     15379 MEMB     134      OSM      H9S      HAL2     0.900000E-01   1.00800           0
     15380 MEMB     134      OSM      H9T      HAL2     0.900000E-01   1.00800           0
     15381 MEMB     134      OSM      C10S     CTL2    -0.180000       12.0110           0
     15382 MEMB     134      OSM      H10S     HAL2     0.900000E-01   1.00800           0
     15383 MEMB     134      OSM      H10T     HAL2     0.900000E-01   1.00800           0
     15384 MEMB     134      OSM      C11S     CTL2    -0.180000       12.0110           0
     15385 MEMB     134      OSM      H11S     HAL2     0.900000E-01   1.00800           0
     15386 MEMB     134      OSM      H11T     HAL2     0.900000E-01   1.00800           0
     15387 MEMB     134      OSM      C12S     CTL2    -0.180000       12.0110           0
     15388 MEMB     134      OSM      H12S     HAL2     0.900000E-01   1.00800           0
     15389 MEMB     134      OSM      H12T     HAL2     0.900000E-01   1.00800           0
     15390 MEMB     134      OSM      C13S     CTL2    -0.180000       12.0110           0
     15391 MEMB     134      OSM      H13S     HAL2     0.900000E-01   1.00800           0
     15392 MEMB     134      OSM      H13T     HAL2     0.900000E-01   1.00800           0
     15393 MEMB     134      OSM      C14S     CTL2    -0.180000       12.0110           0
     15394 MEMB     134      OSM      H14S     HAL2     0.900000E-01   1.00800           0
     15395 MEMB     134      OSM      H14T     HAL2     0.900000E-01   1.00800           0
     15396 MEMB     134      OSM      C15S     CTL2    -0.180000       12.0110           0
     15397 MEMB     134      OSM      H15S     HAL2     0.900000E-01   1.00800           0
     15398 MEMB     134      OSM      H15T     HAL2     0.900000E-01   1.00800           0
     15399 MEMB     134      OSM      C16S     CTL2    -0.180000       12.0110           0
     15400 MEMB     134      OSM      H16S     HAL2     0.900000E-01   1.00800           0
     15401 MEMB     134      OSM      H16T     HAL2     0.900000E-01   1.00800           0
     15402 MEMB     134      OSM      C17S     CTL2    -0.180000       12.0110           0
     15403 MEMB     134      OSM      H17S     HAL2     0.900000E-01   1.00800           0
     15404 MEMB     134      OSM      H17T     HAL2     0.900000E-01   1.00800           0
     15405 MEMB     134      OSM      C18S     CTL3    -0.270000       12.0110           0
     15406 MEMB     134      OSM      H18S     HAL3     0.900000E-01   1.00800           0
     15407 MEMB     134      OSM      H18T     HAL3     0.900000E-01   1.00800           0
     15408 MEMB     134      OSM      H18U     HAL3     0.900000E-01   1.00800           0
     15409 MEMB     134      OSM      C1F      C        0.550000       12.0110           0
     15410 MEMB     134      OSM      OF       O       -0.600000       15.9994           0
     15411 MEMB     134      OSM      C2F      CTL2    -0.700000E-01   12.0110           0
     15412 MEMB     134      OSM      H2F      HAL2     0.600000E-01   1.00800           0
     15413 MEMB     134      OSM      H2G      HAL2     0.600000E-01   1.00800           0
     15414 MEMB     134      OSM      C3F      CTL2    -0.180000       12.0110           0
     15415 MEMB     134      OSM      H3F      HAL2     0.900000E-01   1.00800           0
     15416 MEMB     134      OSM      H3G      HAL2     0.900000E-01   1.00800           0
     15417 MEMB     134      OSM      C4F      CTL2    -0.180000       12.0110           0
     15418 MEMB     134      OSM      H4F      HAL2     0.900000E-01   1.00800           0
     15419 MEMB     134      OSM      H4G      HAL2     0.900000E-01   1.00800           0
     15420 MEMB     134      OSM      C5F      CTL2    -0.180000       12.0110           0
     15421 MEMB     134      OSM      H5F      HAL2     0.900000E-01   1.00800           0
     15422 MEMB     134      OSM      H5G      HAL2     0.900000E-01   1.00800           0
     15423 MEMB     134      OSM      C6F      CTL2    -0.180000       12.0110           0
     15424 MEMB     134      OSM      H6F      HAL2     0.900000E-01   1.00800           0
     15425 MEMB     134      OSM      H6G      HAL2     0.900000E-01   1.00800           0
     15426 MEMB     134      OSM      C7F      CTL2    -0.180000       12.0110           0
     15427 MEMB     134      OSM      H7F      HAL2     0.900000E-01   1.00800           0
     15428 MEMB     134      OSM      H7G      HAL2     0.900000E-01   1.00800           0
     15429 MEMB     134      OSM      C8F      CTL2    -0.180000       12.0110           0
     15430 MEMB     134      OSM      H8F      HAL2     0.900000E-01   1.00800           0
     15431 MEMB     134      OSM      H8G      HAL2     0.900000E-01   1.00800           0
     15432 MEMB     134      OSM      C9F      CEL1    -0.150000       12.0110           0
     15433 MEMB     134      OSM      H9F      HEL1     0.150000       1.00800           0
     15434 MEMB     134      OSM      C10F     CEL1    -0.150000       12.0110           0
     15435 MEMB     134      OSM      H10F     HEL1     0.150000       1.00800           0
     15436 MEMB     134      OSM      C11F     CTL2    -0.180000       12.0110           0
     15437 MEMB     134      OSM      H11F     HAL2     0.900000E-01   1.00800           0
     15438 MEMB     134      OSM      H11G     HAL2     0.900000E-01   1.00800           0
     15439 MEMB     134      OSM      C12F     CTL2    -0.180000       12.0110           0
     15440 MEMB     134      OSM      H12F     HAL2     0.900000E-01   1.00800           0
     15441 MEMB     134      OSM      H12G     HAL2     0.900000E-01   1.00800           0
     15442 MEMB     134      OSM      C13F     CTL2    -0.180000       12.0110           0
     15443 MEMB     134      OSM      H13F     HAL2     0.900000E-01   1.00800           0
     15444 MEMB     134      OSM      H13G     HAL2     0.900000E-01   1.00800           0
     15445 MEMB     134      OSM      C14F     CTL2    -0.180000       12.0110           0
     15446 MEMB     134      OSM      H14F     HAL2     0.900000E-01   1.00800           0
     15447 MEMB     134      OSM      H14G     HAL2     0.900000E-01   1.00800           0
     15448 MEMB     134      OSM      C15F     CTL2    -0.180000       12.0110           0
     15449 MEMB     134      OSM      H15F     HAL2     0.900000E-01   1.00800           0
     15450 MEMB     134      OSM      H15G     HAL2     0.900000E-01   1.00800           0
     15451 MEMB     134      OSM      C16F     CTL2    -0.180000       12.0110           0
     15452 MEMB     134      OSM      H16F     HAL2     0.900000E-01   1.00800           0
     15453 MEMB     134      OSM      H16G     HAL2     0.900000E-01   1.00800           0
     15454 MEMB     134      OSM      C17F     CTL2    -0.180000       12.0110           0
     15455 MEMB     134      OSM      H17F     HAL2     0.900000E-01   1.00800           0
     15456 MEMB     134      OSM      H17G     HAL2     0.900000E-01   1.00800           0
     15457 MEMB     134      OSM      C18F     CTL3    -0.270000       12.0110           0
     15458 MEMB     134      OSM      H18F     HAL3     0.900000E-01   1.00800           0
     15459 MEMB     134      OSM      H18G     HAL3     0.900000E-01   1.00800           0
     15460 MEMB     134      OSM      H18H     HAL3     0.900000E-01   1.00800           0
     15461 MEMB     135      SOPE     N        NH3L    -0.300000       14.0070           0
     15462 MEMB     135      SOPE     HN1      HCL      0.330000       1.00800           0
     15463 MEMB     135      SOPE     HN2      HCL      0.330000       1.00800           0
     15464 MEMB     135      SOPE     HN3      HCL      0.330000       1.00800           0
     15465 MEMB     135      SOPE     C12      CTL2     0.130000       12.0110           0
     15466 MEMB     135      SOPE     H12A     HAL2     0.900000E-01   1.00800           0
     15467 MEMB     135      SOPE     H12B     HAL2     0.900000E-01   1.00800           0
     15468 MEMB     135      SOPE     C11      CTL2    -0.800000E-01   12.0110           0
     15469 MEMB     135      SOPE     H11A     HAL2     0.900000E-01   1.00800           0
     15470 MEMB     135      SOPE     H11B     HAL2     0.900000E-01   1.00800           0
     15471 MEMB     135      SOPE     P        PL        1.50000       30.9740           0
     15472 MEMB     135      SOPE     O13      O2L     -0.780000       15.9994           0
     15473 MEMB     135      SOPE     O14      O2L     -0.780000       15.9994           0
     15474 MEMB     135      SOPE     O12      OSLP    -0.570000       15.9994           0
     15475 MEMB     135      SOPE     O11      OSLP    -0.570000       15.9994           0
     15476 MEMB     135      SOPE     C1       CTL2    -0.800000E-01   12.0110           0
     15477 MEMB     135      SOPE     HA       HAL2     0.900000E-01   1.00800           0
     15478 MEMB     135      SOPE     HB       HAL2     0.900000E-01   1.00800           0
     15479 MEMB     135      SOPE     C2       CTL1     0.170000       12.0110           0
     15480 MEMB     135      SOPE     HS       HAL1     0.900000E-01   1.00800           0
     15481 MEMB     135      SOPE     O21      OSL     -0.490000       15.9994           0
     15482 MEMB     135      SOPE     C21      CL       0.900000       12.0110           0
     15483 MEMB     135      SOPE     O22      OBL     -0.630000       15.9994           0
     15484 MEMB     135      SOPE     C22      CTL2    -0.220000       12.0110           0
     15485 MEMB     135      SOPE     H2R      HAL2     0.900000E-01   1.00800           0
     15486 MEMB     135      SOPE     H2S      HAL2     0.900000E-01   1.00800           0
     15487 MEMB     135      SOPE     C3       CTL2     0.800000E-01   12.0110           0
     15488 MEMB     135      SOPE     HX       HAL2     0.900000E-01   1.00800           0
     15489 MEMB     135      SOPE     HY       HAL2     0.900000E-01   1.00800           0
     15490 MEMB     135      SOPE     O31      OSL     -0.490000       15.9994           0
     15491 MEMB     135      SOPE     C31      CL       0.900000       12.0110           0
     15492 MEMB     135      SOPE     O32      OBL     -0.630000       15.9994           0
     15493 MEMB     135      SOPE     C32      CTL2    -0.220000       12.0110           0
     15494 MEMB     135      SOPE     H2X      HAL2     0.900000E-01   1.00800           0
     15495 MEMB     135      SOPE     H2Y      HAL2     0.900000E-01   1.00800           0
     15496 MEMB     135      SOPE     C23      CTL2    -0.180000       12.0110           0
     15497 MEMB     135      SOPE     H3R      HAL2     0.900000E-01   1.00800           0
     15498 MEMB     135      SOPE     H3S      HAL2     0.900000E-01   1.00800           0
     15499 MEMB     135      SOPE     C24      CTL2    -0.180000       12.0110           0
     15500 MEMB     135      SOPE     H4R      HAL2     0.900000E-01   1.00800           0
     15501 MEMB     135      SOPE     H4S      HAL2     0.900000E-01   1.00800           0
     15502 MEMB     135      SOPE     C25      CTL2    -0.180000       12.0110           0
     15503 MEMB     135      SOPE     H5R      HAL2     0.900000E-01   1.00800           0
     15504 MEMB     135      SOPE     H5S      HAL2     0.900000E-01   1.00800           0
     15505 MEMB     135      SOPE     C26      CTL2    -0.180000       12.0110           0
     15506 MEMB     135      SOPE     H6R      HAL2     0.900000E-01   1.00800           0
     15507 MEMB     135      SOPE     H6S      HAL2     0.900000E-01   1.00800           0
     15508 MEMB     135      SOPE     C27      CTL2    -0.180000       12.0110           0
     15509 MEMB     135      SOPE     H7R      HAL2     0.900000E-01   1.00800           0
     15510 MEMB     135      SOPE     H7S      HAL2     0.900000E-01   1.00800           0
     15511 MEMB     135      SOPE     C28      CTL2    -0.180000       12.0110           0
     15512 MEMB     135      SOPE     H8R      HAL2     0.900000E-01   1.00800           0
     15513 MEMB     135      SOPE     H8S      HAL2     0.900000E-01   1.00800           0
     15514 MEMB     135      SOPE     C29      CEL1    -0.150000       12.0110           0
     15515 MEMB     135      SOPE     H91      HEL1     0.150000       1.00800           0
     15516 MEMB     135      SOPE     C210     CEL1    -0.150000       12.0110           0
     15517 MEMB     135      SOPE     H101     HEL1     0.150000       1.00800           0
     15518 MEMB     135      SOPE     C211     CTL2    -0.180000       12.0110           0
     15519 MEMB     135      SOPE     H11R     HAL2     0.900000E-01   1.00800           0
     15520 MEMB     135      SOPE     H11S     HAL2     0.900000E-01   1.00800           0
     15521 MEMB     135      SOPE     C212     CTL2    -0.180000       12.0110           0
     15522 MEMB     135      SOPE     H12R     HAL2     0.900000E-01   1.00800           0
     15523 MEMB     135      SOPE     H12S     HAL2     0.900000E-01   1.00800           0
     15524 MEMB     135      SOPE     C213     CTL2    -0.180000       12.0110           0
     15525 MEMB     135      SOPE     H13R     HAL2     0.900000E-01   1.00800           0
     15526 MEMB     135      SOPE     H13S     HAL2     0.900000E-01   1.00800           0
     15527 MEMB     135      SOPE     C214     CTL2    -0.180000       12.0110           0
     15528 MEMB     135      SOPE     H14R     HAL2     0.900000E-01   1.00800           0
     15529 MEMB     135      SOPE     H14S     HAL2     0.900000E-01   1.00800           0
     15530 MEMB     135      SOPE     C215     CTL2    -0.180000       12.0110           0
     15531 MEMB     135      SOPE     H15R     HAL2     0.900000E-01   1.00800           0
     15532 MEMB     135      SOPE     H15S     HAL2     0.900000E-01   1.00800           0
     15533 MEMB     135      SOPE     C216     CTL2    -0.180000       12.0110           0
     15534 MEMB     135      SOPE     H16R     HAL2     0.900000E-01   1.00800           0
     15535 MEMB     135      SOPE     H16S     HAL2     0.900000E-01   1.00800           0
     15536 MEMB     135      SOPE     C217     CTL2    -0.180000       12.0110           0
     15537 MEMB     135      SOPE     H17R     HAL2     0.900000E-01   1.00800           0
     15538 MEMB     135      SOPE     H17S     HAL2     0.900000E-01   1.00800           0
     15539 MEMB     135      SOPE     C218     CTL3    -0.270000       12.0110           0
     15540 MEMB     135      SOPE     H18R     HAL3     0.900000E-01   1.00800           0
     15541 MEMB     135      SOPE     H18S     HAL3     0.900000E-01   1.00800           0
     15542 MEMB     135      SOPE     H18T     HAL3     0.900000E-01   1.00800           0
     15543 MEMB     135      SOPE     C33      CTL2    -0.180000       12.0110           0
     15544 MEMB     135      SOPE     H3X      HAL2     0.900000E-01   1.00800           0
     15545 MEMB     135      SOPE     H3Y      HAL2     0.900000E-01   1.00800           0
     15546 MEMB     135      SOPE     C34      CTL2    -0.180000       12.0110           0
     15547 MEMB     135      SOPE     H4X      HAL2     0.900000E-01   1.00800           0
     15548 MEMB     135      SOPE     H4Y      HAL2     0.900000E-01   1.00800           0
     15549 MEMB     135      SOPE     C35      CTL2    -0.180000       12.0110           0
     15550 MEMB     135      SOPE     H5X      HAL2     0.900000E-01   1.00800           0
     15551 MEMB     135      SOPE     H5Y      HAL2     0.900000E-01   1.00800           0
     15552 MEMB     135      SOPE     C36      CTL2    -0.180000       12.0110           0
     15553 MEMB     135      SOPE     H6X      HAL2     0.900000E-01   1.00800           0
     15554 MEMB     135      SOPE     H6Y      HAL2     0.900000E-01   1.00800           0
     15555 MEMB     135      SOPE     C37      CTL2    -0.180000       12.0110           0
     15556 MEMB     135      SOPE     H7X      HAL2     0.900000E-01   1.00800           0
     15557 MEMB     135      SOPE     H7Y      HAL2     0.900000E-01   1.00800           0
     15558 MEMB     135      SOPE     C38      CTL2    -0.180000       12.0110           0
     15559 MEMB     135      SOPE     H8X      HAL2     0.900000E-01   1.00800           0
     15560 MEMB     135      SOPE     H8Y      HAL2     0.900000E-01   1.00800           0
     15561 MEMB     135      SOPE     C39      CTL2    -0.180000       12.0110           0
     15562 MEMB     135      SOPE     H9X      HAL2     0.900000E-01   1.00800           0
     15563 MEMB     135      SOPE     H9Y      HAL2     0.900000E-01   1.00800           0
     15564 MEMB     135      SOPE     C310     CTL2    -0.180000       12.0110           0
     15565 MEMB     135      SOPE     H10X     HAL2     0.900000E-01   1.00800           0
     15566 MEMB     135      SOPE     H10Y     HAL2     0.900000E-01   1.00800           0
     15567 MEMB     135      SOPE     C311     CTL2    -0.180000       12.0110           0
     15568 MEMB     135      SOPE     H11X     HAL2     0.900000E-01   1.00800           0
     15569 MEMB     135      SOPE     H11Y     HAL2     0.900000E-01   1.00800           0
     15570 MEMB     135      SOPE     C312     CTL2    -0.180000       12.0110           0
     15571 MEMB     135      SOPE     H12X     HAL2     0.900000E-01   1.00800           0
     15572 MEMB     135      SOPE     H12Y     HAL2     0.900000E-01   1.00800           0
     15573 MEMB     135      SOPE     C313     CTL2    -0.180000       12.0110           0
     15574 MEMB     135      SOPE     H13X     HAL2     0.900000E-01   1.00800           0
     15575 MEMB     135      SOPE     H13Y     HAL2     0.900000E-01   1.00800           0
     15576 MEMB     135      SOPE     C314     CTL2    -0.180000       12.0110           0
     15577 MEMB     135      SOPE     H14X     HAL2     0.900000E-01   1.00800           0
     15578 MEMB     135      SOPE     H14Y     HAL2     0.900000E-01   1.00800           0
     15579 MEMB     135      SOPE     C315     CTL2    -0.180000       12.0110           0
     15580 MEMB     135      SOPE     H15X     HAL2     0.900000E-01   1.00800           0
     15581 MEMB     135      SOPE     H15Y     HAL2     0.900000E-01   1.00800           0
     15582 MEMB     135      SOPE     C316     CTL2    -0.180000       12.0110           0
     15583 MEMB     135      SOPE     H16X     HAL2     0.900000E-01   1.00800           0
     15584 MEMB     135      SOPE     H16Y     HAL2     0.900000E-01   1.00800           0
     15585 MEMB     135      SOPE     C317     CTL2    -0.180000       12.0110           0
     15586 MEMB     135      SOPE     H17X     HAL2     0.900000E-01   1.00800           0
     15587 MEMB     135      SOPE     H17Y     HAL2     0.900000E-01   1.00800           0
     15588 MEMB     135      SOPE     C318     CTL3    -0.270000       12.0110           0
     15589 MEMB     135      SOPE     H18X     HAL3     0.900000E-01   1.00800           0
     15590 MEMB     135      SOPE     H18Y     HAL3     0.900000E-01   1.00800           0
     15591 MEMB     135      SOPE     H18Z     HAL3     0.900000E-01   1.00800           0
     15592 MEMB     136      OSM      N        NTL     -0.600000       14.0070           0
     15593 MEMB     136      OSM      C15      CTL5    -0.350000       12.0110           0
     15594 MEMB     136      OSM      H15A     HL       0.250000       1.00800           0
     15595 MEMB     136      OSM      H15B     HL       0.250000       1.00800           0
     15596 MEMB     136      OSM      H15C     HL       0.250000       1.00800           0
     15597 MEMB     136      OSM      C14      CTL5    -0.350000       12.0110           0
     15598 MEMB     136      OSM      H14A     HL       0.250000       1.00800           0
     15599 MEMB     136      OSM      H14B     HL       0.250000       1.00800           0
     15600 MEMB     136      OSM      H14C     HL       0.250000       1.00800           0
     15601 MEMB     136      OSM      C13      CTL5    -0.350000       12.0110           0
     15602 MEMB     136      OSM      H13A     HL       0.250000       1.00800           0
     15603 MEMB     136      OSM      H13B     HL       0.250000       1.00800           0
     15604 MEMB     136      OSM      H13C     HL       0.250000       1.00800           0
     15605 MEMB     136      OSM      C12      CTL2    -0.100000       12.0110           0
     15606 MEMB     136      OSM      H12A     HL       0.250000       1.00800           0
     15607 MEMB     136      OSM      H12B     HL       0.250000       1.00800           0
     15608 MEMB     136      OSM      C11      CTL2    -0.800000E-01   12.0110           0
     15609 MEMB     136      OSM      H11A     HAL2     0.900000E-01   1.00800           0
     15610 MEMB     136      OSM      H11B     HAL2     0.900000E-01   1.00800           0
     15611 MEMB     136      OSM      P        PL        1.50000       30.9740           0
     15612 MEMB     136      OSM      O13      O2L     -0.780000       15.9994           0
     15613 MEMB     136      OSM      O14      O2L     -0.780000       15.9994           0
     15614 MEMB     136      OSM      O11      OSLP    -0.570000       15.9994           0
     15615 MEMB     136      OSM      O12      OSLP    -0.570000       15.9994           0
     15616 MEMB     136      OSM      C1S      CTL2    -0.800000E-01   12.0110           0
     15617 MEMB     136      OSM      H1S      HAL2     0.900000E-01   1.00800           0
     15618 MEMB     136      OSM      H1T      HAL2     0.900000E-01   1.00800           0
     15619 MEMB     136      OSM      NF       NHL     -0.700000       14.0070           0
     15620 MEMB     136      OSM      HNF      H        0.350000       1.00800           0
     15621 MEMB     136      OSM      C2S      CTL1     0.300000       12.0110           0
     15622 MEMB     136      OSM      H2S      HAL1     0.500000E-01   1.00800           0
     15623 MEMB     136      OSM      C3S      CTO1     0.500000       12.0110           0
     15624 MEMB     136      OSM      H3S      HAL1    -0.110000       1.00800           0
     15625 MEMB     136      OSM      O3       OHL     -0.690000       15.9994           0
     15626 MEMB     136      OSM      HO3      HOL      0.300000       1.00800           0
     15627 MEMB     136      OSM      C4S      CEL3    -0.150000       12.0110           0
     15628 MEMB     136      OSM      H4S      HEL1     0.150000       1.00800           0
     15629 MEMB     136      OSM      C5S      CEL3    -0.150000       12.0110           0
     15630 MEMB     136      OSM      H5S      HEL1     0.150000       1.00800           0
     15631 MEMB     136      OSM      C6S      CTL2    -0.180000       12.0110           0
     15632 MEMB     136      OSM      H6S      HAL2     0.900000E-01   1.00800           0
     15633 MEMB     136      OSM      H6T      HAL2     0.900000E-01   1.00800           0
     15634 MEMB     136      OSM      C7S      CTL2    -0.180000       12.0110           0
     15635 MEMB     136      OSM      H7S      HAL2     0.900000E-01   1.00800           0
     15636 MEMB     136      OSM      H7T      HAL2     0.900000E-01   1.00800           0
     15637 MEMB     136      OSM      C8S      CTL2    -0.180000       12.0110           0
     15638 MEMB     136      OSM      H8S      HAL2     0.900000E-01   1.00800           0
     15639 MEMB     136      OSM      H8T      HAL2     0.900000E-01   1.00800           0
     15640 MEMB     136      OSM      C9S      CTL2    -0.180000       12.0110           0
     15641 MEMB     136      OSM      H9S      HAL2     0.900000E-01   1.00800           0
     15642 MEMB     136      OSM      H9T      HAL2     0.900000E-01   1.00800           0
     15643 MEMB     136      OSM      C10S     CTL2    -0.180000       12.0110           0
     15644 MEMB     136      OSM      H10S     HAL2     0.900000E-01   1.00800           0
     15645 MEMB     136      OSM      H10T     HAL2     0.900000E-01   1.00800           0
     15646 MEMB     136      OSM      C11S     CTL2    -0.180000       12.0110           0
     15647 MEMB     136      OSM      H11S     HAL2     0.900000E-01   1.00800           0
     15648 MEMB     136      OSM      H11T     HAL2     0.900000E-01   1.00800           0
     15649 MEMB     136      OSM      C12S     CTL2    -0.180000       12.0110           0
     15650 MEMB     136      OSM      H12S     HAL2     0.900000E-01   1.00800           0
     15651 MEMB     136      OSM      H12T     HAL2     0.900000E-01   1.00800           0
     15652 MEMB     136      OSM      C13S     CTL2    -0.180000       12.0110           0
     15653 MEMB     136      OSM      H13S     HAL2     0.900000E-01   1.00800           0
     15654 MEMB     136      OSM      H13T     HAL2     0.900000E-01   1.00800           0
     15655 MEMB     136      OSM      C14S     CTL2    -0.180000       12.0110           0
     15656 MEMB     136      OSM      H14S     HAL2     0.900000E-01   1.00800           0
     15657 MEMB     136      OSM      H14T     HAL2     0.900000E-01   1.00800           0
     15658 MEMB     136      OSM      C15S     CTL2    -0.180000       12.0110           0
     15659 MEMB     136      OSM      H15S     HAL2     0.900000E-01   1.00800           0
     15660 MEMB     136      OSM      H15T     HAL2     0.900000E-01   1.00800           0
     15661 MEMB     136      OSM      C16S     CTL2    -0.180000       12.0110           0
     15662 MEMB     136      OSM      H16S     HAL2     0.900000E-01   1.00800           0
     15663 MEMB     136      OSM      H16T     HAL2     0.900000E-01   1.00800           0
     15664 MEMB     136      OSM      C17S     CTL2    -0.180000       12.0110           0
     15665 MEMB     136      OSM      H17S     HAL2     0.900000E-01   1.00800           0
     15666 MEMB     136      OSM      H17T     HAL2     0.900000E-01   1.00800           0
     15667 MEMB     136      OSM      C18S     CTL3    -0.270000       12.0110           0
     15668 MEMB     136      OSM      H18S     HAL3     0.900000E-01   1.00800           0
     15669 MEMB     136      OSM      H18T     HAL3     0.900000E-01   1.00800           0
     15670 MEMB     136      OSM      H18U     HAL3     0.900000E-01   1.00800           0
     15671 MEMB     136      OSM      C1F      C        0.550000       12.0110           0
     15672 MEMB     136      OSM      OF       O       -0.600000       15.9994           0
     15673 MEMB     136      OSM      C2F      CTL2    -0.700000E-01   12.0110           0
     15674 MEMB     136      OSM      H2F      HAL2     0.600000E-01   1.00800           0
     15675 MEMB     136      OSM      H2G      HAL2     0.600000E-01   1.00800           0
     15676 MEMB     136      OSM      C3F      CTL2    -0.180000       12.0110           0
     15677 MEMB     136      OSM      H3F      HAL2     0.900000E-01   1.00800           0
     15678 MEMB     136      OSM      H3G      HAL2     0.900000E-01   1.00800           0
     15679 MEMB     136      OSM      C4F      CTL2    -0.180000       12.0110           0
     15680 MEMB     136      OSM      H4F      HAL2     0.900000E-01   1.00800           0
     15681 MEMB     136      OSM      H4G      HAL2     0.900000E-01   1.00800           0
     15682 MEMB     136      OSM      C5F      CTL2    -0.180000       12.0110           0
     15683 MEMB     136      OSM      H5F      HAL2     0.900000E-01   1.00800           0
     15684 MEMB     136      OSM      H5G      HAL2     0.900000E-01   1.00800           0
     15685 MEMB     136      OSM      C6F      CTL2    -0.180000       12.0110           0
     15686 MEMB     136      OSM      H6F      HAL2     0.900000E-01   1.00800           0
     15687 MEMB     136      OSM      H6G      HAL2     0.900000E-01   1.00800           0
     15688 MEMB     136      OSM      C7F      CTL2    -0.180000       12.0110           0
     15689 MEMB     136      OSM      H7F      HAL2     0.900000E-01   1.00800           0
     15690 MEMB     136      OSM      H7G      HAL2     0.900000E-01   1.00800           0
     15691 MEMB     136      OSM      C8F      CTL2    -0.180000       12.0110           0
     15692 MEMB     136      OSM      H8F      HAL2     0.900000E-01   1.00800           0
     15693 MEMB     136      OSM      H8G      HAL2     0.900000E-01   1.00800           0
     15694 MEMB     136      OSM      C9F      CEL1    -0.150000       12.0110           0
     15695 MEMB     136      OSM      H9F      HEL1     0.150000       1.00800           0
     15696 MEMB     136      OSM      C10F     CEL1    -0.150000       12.0110           0
     15697 MEMB     136      OSM      H10F     HEL1     0.150000       1.00800           0
     15698 MEMB     136      OSM      C11F     CTL2    -0.180000       12.0110           0
     15699 MEMB     136      OSM      H11F     HAL2     0.900000E-01   1.00800           0
     15700 MEMB     136      OSM      H11G     HAL2     0.900000E-01   1.00800           0
     15701 MEMB     136      OSM      C12F     CTL2    -0.180000       12.0110           0
     15702 MEMB     136      OSM      H12F     HAL2     0.900000E-01   1.00800           0
     15703 MEMB     136      OSM      H12G     HAL2     0.900000E-01   1.00800           0
     15704 MEMB     136      OSM      C13F     CTL2    -0.180000       12.0110           0
     15705 MEMB     136      OSM      H13F     HAL2     0.900000E-01   1.00800           0
     15706 MEMB     136      OSM      H13G     HAL2     0.900000E-01   1.00800           0
     15707 MEMB     136      OSM      C14F     CTL2    -0.180000       12.0110           0
     15708 MEMB     136      OSM      H14F     HAL2     0.900000E-01   1.00800           0
     15709 MEMB     136      OSM      H14G     HAL2     0.900000E-01   1.00800           0
     15710 MEMB     136      OSM      C15F     CTL2    -0.180000       12.0110           0
     15711 MEMB     136      OSM      H15F     HAL2     0.900000E-01   1.00800           0
     15712 MEMB     136      OSM      H15G     HAL2     0.900000E-01   1.00800           0
     15713 MEMB     136      OSM      C16F     CTL2    -0.180000       12.0110           0
     15714 MEMB     136      OSM      H16F     HAL2     0.900000E-01   1.00800           0
     15715 MEMB     136      OSM      H16G     HAL2     0.900000E-01   1.00800           0
     15716 MEMB     136      OSM      C17F     CTL2    -0.180000       12.0110           0
     15717 MEMB     136      OSM      H17F     HAL2     0.900000E-01   1.00800           0
     15718 MEMB     136      OSM      H17G     HAL2     0.900000E-01   1.00800           0
     15719 MEMB     136      OSM      C18F     CTL3    -0.270000       12.0110           0
     15720 MEMB     136      OSM      H18F     HAL3     0.900000E-01   1.00800           0
     15721 MEMB     136      OSM      H18G     HAL3     0.900000E-01   1.00800           0
     15722 MEMB     136      OSM      H18H     HAL3     0.900000E-01   1.00800           0
     15723 MEMB     137      SAPS     N        NH3L    -0.300000       14.0070           0
     15724 MEMB     137      SAPS     HN1      HCL      0.330000       1.00800           0
     15725 MEMB     137      SAPS     HN2      HCL      0.330000       1.00800           0
     15726 MEMB     137      SAPS     HN3      HCL      0.330000       1.00800           0
     15727 MEMB     137      SAPS     C12      CTL1     0.210000       12.0110           0
     15728 MEMB     137      SAPS     H12A     HBL      0.100000       1.00800           0
     15729 MEMB     137      SAPS     C13      CCL      0.340000       12.0110           0
     15730 MEMB     137      SAPS     O13A     OCL     -0.670000       15.9994           0
     15731 MEMB     137      SAPS     O13B     OCL     -0.670000       15.9994           0
     15732 MEMB     137      SAPS     C11      CTL2    -0.800000E-01   12.0110           0
     15733 MEMB     137      SAPS     H11A     HAL2     0.900000E-01   1.00800           0
     15734 MEMB     137      SAPS     H11B     HAL2     0.900000E-01   1.00800           0
     15735 MEMB     137      SAPS     P        PL        1.50000       30.9740           0
     15736 MEMB     137      SAPS     O13      O2L     -0.780000       15.9994           0
     15737 MEMB     137      SAPS     O14      O2L     -0.780000       15.9994           0
     15738 MEMB     137      SAPS     O12      OSLP    -0.570000       15.9994           0
     15739 MEMB     137      SAPS     O11      OSLP    -0.570000       15.9994           0
     15740 MEMB     137      SAPS     C1       CTL2    -0.800000E-01   12.0110           0
     15741 MEMB     137      SAPS     HA       HAL2     0.900000E-01   1.00800           0
     15742 MEMB     137      SAPS     HB       HAL2     0.900000E-01   1.00800           0
     15743 MEMB     137      SAPS     C2       CTL1     0.170000       12.0110           0
     15744 MEMB     137      SAPS     HS       HAL1     0.900000E-01   1.00800           0
     15745 MEMB     137      SAPS     O21      OSL     -0.490000       15.9994           0
     15746 MEMB     137      SAPS     C21      CL       0.900000       12.0110           0
     15747 MEMB     137      SAPS     O22      OBL     -0.630000       15.9994           0
     15748 MEMB     137      SAPS     C22      CTL2    -0.220000       12.0110           0
     15749 MEMB     137      SAPS     H2R      HAL2     0.900000E-01   1.00800           0
     15750 MEMB     137      SAPS     H2S      HAL2     0.900000E-01   1.00800           0
     15751 MEMB     137      SAPS     C3       CTL2     0.800000E-01   12.0110           0
     15752 MEMB     137      SAPS     HX       HAL2     0.900000E-01   1.00800           0
     15753 MEMB     137      SAPS     HY       HAL2     0.900000E-01   1.00800           0
     15754 MEMB     137      SAPS     O31      OSL     -0.490000       15.9994           0
     15755 MEMB     137      SAPS     C31      CL       0.900000       12.0110           0
     15756 MEMB     137      SAPS     O32      OBL     -0.630000       15.9994           0
     15757 MEMB     137      SAPS     C32      CTL2    -0.220000       12.0110           0
     15758 MEMB     137      SAPS     H2X      HAL2     0.900000E-01   1.00800           0
     15759 MEMB     137      SAPS     H2Y      HAL2     0.900000E-01   1.00800           0
     15760 MEMB     137      SAPS     C23      CTL2    -0.180000       12.0110           0
     15761 MEMB     137      SAPS     H3R      HAL2     0.900000E-01   1.00800           0
     15762 MEMB     137      SAPS     H3S      HAL2     0.900000E-01   1.00800           0
     15763 MEMB     137      SAPS     C24      CTL2    -0.180000       12.0110           0
     15764 MEMB     137      SAPS     H4R      HAL2     0.900000E-01   1.00800           0
     15765 MEMB     137      SAPS     H4S      HAL2     0.900000E-01   1.00800           0
     15766 MEMB     137      SAPS     C25      CEL1    -0.150000       12.0110           0
     15767 MEMB     137      SAPS     H5R      HEL1     0.150000       1.00800           0
     15768 MEMB     137      SAPS     C26      CEL1    -0.150000       12.0110           0
     15769 MEMB     137      SAPS     H6R      HEL1     0.150000       1.00800           0
     15770 MEMB     137      SAPS     C27      CTL2    -0.180000       12.0110           0
     15771 MEMB     137      SAPS     H7R      HAL2     0.900000E-01   1.00800           0
     15772 MEMB     137      SAPS     H7S      HAL2     0.900000E-01   1.00800           0
     15773 MEMB     137      SAPS     C28      CEL1    -0.150000       12.0110           0
     15774 MEMB     137      SAPS     H8R      HEL1     0.150000       1.00800           0
     15775 MEMB     137      SAPS     C29      CEL1    -0.150000       12.0110           0
     15776 MEMB     137      SAPS     H9R      HEL1     0.150000       1.00800           0
     15777 MEMB     137      SAPS     C210     CTL2    -0.180000       12.0110           0
     15778 MEMB     137      SAPS     H10R     HAL2     0.900000E-01   1.00800           0
     15779 MEMB     137      SAPS     H10S     HAL2     0.900000E-01   1.00800           0
     15780 MEMB     137      SAPS     C211     CEL1    -0.150000       12.0110           0
     15781 MEMB     137      SAPS     H11R     HEL1     0.150000       1.00800           0
     15782 MEMB     137      SAPS     C212     CEL1    -0.150000       12.0110           0
     15783 MEMB     137      SAPS     H12R     HEL1     0.150000       1.00800           0
     15784 MEMB     137      SAPS     C213     CTL2    -0.180000       12.0110           0
     15785 MEMB     137      SAPS     H13R     HAL2     0.900000E-01   1.00800           0
     15786 MEMB     137      SAPS     H13S     HAL2     0.900000E-01   1.00800           0
     15787 MEMB     137      SAPS     C214     CEL1    -0.150000       12.0110           0
     15788 MEMB     137      SAPS     H14R     HEL1     0.150000       1.00800           0
     15789 MEMB     137      SAPS     C215     CEL1    -0.150000       12.0110           0
     15790 MEMB     137      SAPS     H15R     HEL1     0.150000       1.00800           0
     15791 MEMB     137      SAPS     C216     CTL2    -0.180000       12.0110           0
     15792 MEMB     137      SAPS     H16R     HAL2     0.900000E-01   1.00800           0
     15793 MEMB     137      SAPS     H16S     HAL2     0.900000E-01   1.00800           0
     15794 MEMB     137      SAPS     C217     CTL2    -0.180000       12.0110           0
     15795 MEMB     137      SAPS     H17R     HAL2     0.900000E-01   1.00800           0
     15796 MEMB     137      SAPS     H17S     HAL2     0.900000E-01   1.00800           0
     15797 MEMB     137      SAPS     C218     CTL2    -0.180000       12.0110           0
     15798 MEMB     137      SAPS     H18R     HAL2     0.900000E-01   1.00800           0
     15799 MEMB     137      SAPS     H18S     HAL2     0.900000E-01   1.00800           0
     15800 MEMB     137      SAPS     C219     CTL2    -0.180000       12.0110           0
     15801 MEMB     137      SAPS     H19R     HAL2     0.900000E-01   1.00800           0
     15802 MEMB     137      SAPS     H19S     HAL2     0.900000E-01   1.00800           0
     15803 MEMB     137      SAPS     C220     CTL3    -0.270000       12.0110           0
     15804 MEMB     137      SAPS     H20R     HAL3     0.900000E-01   1.00800           0
     15805 MEMB     137      SAPS     H20S     HAL3     0.900000E-01   1.00800           0
     15806 MEMB     137      SAPS     H20T     HAL3     0.900000E-01   1.00800           0
     15807 MEMB     137      SAPS     C33      CTL2    -0.180000       12.0110           0
     15808 MEMB     137      SAPS     H3X      HAL2     0.900000E-01   1.00800           0
     15809 MEMB     137      SAPS     H3Y      HAL2     0.900000E-01   1.00800           0
     15810 MEMB     137      SAPS     C34      CTL2    -0.180000       12.0110           0
     15811 MEMB     137      SAPS     H4X      HAL2     0.900000E-01   1.00800           0
     15812 MEMB     137      SAPS     H4Y      HAL2     0.900000E-01   1.00800           0
     15813 MEMB     137      SAPS     C35      CTL2    -0.180000       12.0110           0
     15814 MEMB     137      SAPS     H5X      HAL2     0.900000E-01   1.00800           0
     15815 MEMB     137      SAPS     H5Y      HAL2     0.900000E-01   1.00800           0
     15816 MEMB     137      SAPS     C36      CTL2    -0.180000       12.0110           0
     15817 MEMB     137      SAPS     H6X      HAL2     0.900000E-01   1.00800           0
     15818 MEMB     137      SAPS     H6Y      HAL2     0.900000E-01   1.00800           0
     15819 MEMB     137      SAPS     C37      CTL2    -0.180000       12.0110           0
     15820 MEMB     137      SAPS     H7X      HAL2     0.900000E-01   1.00800           0
     15821 MEMB     137      SAPS     H7Y      HAL2     0.900000E-01   1.00800           0
     15822 MEMB     137      SAPS     C38      CTL2    -0.180000       12.0110           0
     15823 MEMB     137      SAPS     H8X      HAL2     0.900000E-01   1.00800           0
     15824 MEMB     137      SAPS     H8Y      HAL2     0.900000E-01   1.00800           0
     15825 MEMB     137      SAPS     C39      CTL2    -0.180000       12.0110           0
     15826 MEMB     137      SAPS     H9X      HAL2     0.900000E-01   1.00800           0
     15827 MEMB     137      SAPS     H9Y      HAL2     0.900000E-01   1.00800           0
     15828 MEMB     137      SAPS     C310     CTL2    -0.180000       12.0110           0
     15829 MEMB     137      SAPS     H10X     HAL2     0.900000E-01   1.00800           0
     15830 MEMB     137      SAPS     H10Y     HAL2     0.900000E-01   1.00800           0
     15831 MEMB     137      SAPS     C311     CTL2    -0.180000       12.0110           0
     15832 MEMB     137      SAPS     H11X     HAL2     0.900000E-01   1.00800           0
     15833 MEMB     137      SAPS     H11Y     HAL2     0.900000E-01   1.00800           0
     15834 MEMB     137      SAPS     C312     CTL2    -0.180000       12.0110           0
     15835 MEMB     137      SAPS     H12X     HAL2     0.900000E-01   1.00800           0
     15836 MEMB     137      SAPS     H12Y     HAL2     0.900000E-01   1.00800           0
     15837 MEMB     137      SAPS     C313     CTL2    -0.180000       12.0110           0
     15838 MEMB     137      SAPS     H13X     HAL2     0.900000E-01   1.00800           0
     15839 MEMB     137      SAPS     H13Y     HAL2     0.900000E-01   1.00800           0
     15840 MEMB     137      SAPS     C314     CTL2    -0.180000       12.0110           0
     15841 MEMB     137      SAPS     H14X     HAL2     0.900000E-01   1.00800           0
     15842 MEMB     137      SAPS     H14Y     HAL2     0.900000E-01   1.00800           0
     15843 MEMB     137      SAPS     C315     CTL2    -0.180000       12.0110           0
     15844 MEMB     137      SAPS     H15X     HAL2     0.900000E-01   1.00800           0
     15845 MEMB     137      SAPS     H15Y     HAL2     0.900000E-01   1.00800           0
     15846 MEMB     137      SAPS     C316     CTL2    -0.180000       12.0110           0
     15847 MEMB     137      SAPS     H16X     HAL2     0.900000E-01   1.00800           0
     15848 MEMB     137      SAPS     H16Y     HAL2     0.900000E-01   1.00800           0
     15849 MEMB     137      SAPS     C317     CTL2    -0.180000       12.0110           0
     15850 MEMB     137      SAPS     H17X     HAL2     0.900000E-01   1.00800           0
     15851 MEMB     137      SAPS     H17Y     HAL2     0.900000E-01   1.00800           0
     15852 MEMB     137      SAPS     C318     CTL3    -0.270000       12.0110           0
     15853 MEMB     137      SAPS     H18X     HAL3     0.900000E-01   1.00800           0
     15854 MEMB     137      SAPS     H18Y     HAL3     0.900000E-01   1.00800           0
     15855 MEMB     137      SAPS     H18Z     HAL3     0.900000E-01   1.00800           0
     15856 MEMB     138      SAPE     N        NH3L    -0.300000       14.0070           0
     15857 MEMB     138      SAPE     HN1      HCL      0.330000       1.00800           0
     15858 MEMB     138      SAPE     HN2      HCL      0.330000       1.00800           0
     15859 MEMB     138      SAPE     HN3      HCL      0.330000       1.00800           0
     15860 MEMB     138      SAPE     C12      CTL2     0.130000       12.0110           0
     15861 MEMB     138      SAPE     H12A     HAL2     0.900000E-01   1.00800           0
     15862 MEMB     138      SAPE     H12B     HAL2     0.900000E-01   1.00800           0
     15863 MEMB     138      SAPE     C11      CTL2    -0.800000E-01   12.0110           0
     15864 MEMB     138      SAPE     H11A     HAL2     0.900000E-01   1.00800           0
     15865 MEMB     138      SAPE     H11B     HAL2     0.900000E-01   1.00800           0
     15866 MEMB     138      SAPE     P        PL        1.50000       30.9740           0
     15867 MEMB     138      SAPE     O13      O2L     -0.780000       15.9994           0
     15868 MEMB     138      SAPE     O14      O2L     -0.780000       15.9994           0
     15869 MEMB     138      SAPE     O12      OSLP    -0.570000       15.9994           0
     15870 MEMB     138      SAPE     O11      OSLP    -0.570000       15.9994           0
     15871 MEMB     138      SAPE     C1       CTL2    -0.800000E-01   12.0110           0
     15872 MEMB     138      SAPE     HA       HAL2     0.900000E-01   1.00800           0
     15873 MEMB     138      SAPE     HB       HAL2     0.900000E-01   1.00800           0
     15874 MEMB     138      SAPE     C2       CTL1     0.170000       12.0110           0
     15875 MEMB     138      SAPE     HS       HAL1     0.900000E-01   1.00800           0
     15876 MEMB     138      SAPE     O21      OSL     -0.490000       15.9994           0
     15877 MEMB     138      SAPE     C21      CL       0.900000       12.0110           0
     15878 MEMB     138      SAPE     O22      OBL     -0.630000       15.9994           0
     15879 MEMB     138      SAPE     C22      CTL2    -0.220000       12.0110           0
     15880 MEMB     138      SAPE     H2R      HAL2     0.900000E-01   1.00800           0
     15881 MEMB     138      SAPE     H2S      HAL2     0.900000E-01   1.00800           0
     15882 MEMB     138      SAPE     C3       CTL2     0.800000E-01   12.0110           0
     15883 MEMB     138      SAPE     HX       HAL2     0.900000E-01   1.00800           0
     15884 MEMB     138      SAPE     HY       HAL2     0.900000E-01   1.00800           0
     15885 MEMB     138      SAPE     O31      OSL     -0.490000       15.9994           0
     15886 MEMB     138      SAPE     C31      CL       0.900000       12.0110           0
     15887 MEMB     138      SAPE     O32      OBL     -0.630000       15.9994           0
     15888 MEMB     138      SAPE     C32      CTL2    -0.220000       12.0110           0
     15889 MEMB     138      SAPE     H2X      HAL2     0.900000E-01   1.00800           0
     15890 MEMB     138      SAPE     H2Y      HAL2     0.900000E-01   1.00800           0
     15891 MEMB     138      SAPE     C23      CTL2    -0.180000       12.0110           0
     15892 MEMB     138      SAPE     H3R      HAL2     0.900000E-01   1.00800           0
     15893 MEMB     138      SAPE     H3S      HAL2     0.900000E-01   1.00800           0
     15894 MEMB     138      SAPE     C24      CTL2    -0.180000       12.0110           0
     15895 MEMB     138      SAPE     H4R      HAL2     0.900000E-01   1.00800           0
     15896 MEMB     138      SAPE     H4S      HAL2     0.900000E-01   1.00800           0
     15897 MEMB     138      SAPE     C25      CEL1    -0.150000       12.0110           0
     15898 MEMB     138      SAPE     H5R      HEL1     0.150000       1.00800           0
     15899 MEMB     138      SAPE     C26      CEL1    -0.150000       12.0110           0
     15900 MEMB     138      SAPE     H6R      HEL1     0.150000       1.00800           0
     15901 MEMB     138      SAPE     C27      CTL2    -0.180000       12.0110           0
     15902 MEMB     138      SAPE     H7R      HAL2     0.900000E-01   1.00800           0
     15903 MEMB     138      SAPE     H7S      HAL2     0.900000E-01   1.00800           0
     15904 MEMB     138      SAPE     C28      CEL1    -0.150000       12.0110           0
     15905 MEMB     138      SAPE     H8R      HEL1     0.150000       1.00800           0
     15906 MEMB     138      SAPE     C29      CEL1    -0.150000       12.0110           0
     15907 MEMB     138      SAPE     H9R      HEL1     0.150000       1.00800           0
     15908 MEMB     138      SAPE     C210     CTL2    -0.180000       12.0110           0
     15909 MEMB     138      SAPE     H10R     HAL2     0.900000E-01   1.00800           0
     15910 MEMB     138      SAPE     H10S     HAL2     0.900000E-01   1.00800           0
     15911 MEMB     138      SAPE     C211     CEL1    -0.150000       12.0110           0
     15912 MEMB     138      SAPE     H11R     HEL1     0.150000       1.00800           0
     15913 MEMB     138      SAPE     C212     CEL1    -0.150000       12.0110           0
     15914 MEMB     138      SAPE     H12R     HEL1     0.150000       1.00800           0
     15915 MEMB     138      SAPE     C213     CTL2    -0.180000       12.0110           0
     15916 MEMB     138      SAPE     H13R     HAL2     0.900000E-01   1.00800           0
     15917 MEMB     138      SAPE     H13S     HAL2     0.900000E-01   1.00800           0
     15918 MEMB     138      SAPE     C214     CEL1    -0.150000       12.0110           0
     15919 MEMB     138      SAPE     H14R     HEL1     0.150000       1.00800           0
     15920 MEMB     138      SAPE     C215     CEL1    -0.150000       12.0110           0
     15921 MEMB     138      SAPE     H15R     HEL1     0.150000       1.00800           0
     15922 MEMB     138      SAPE     C216     CTL2    -0.180000       12.0110           0
     15923 MEMB     138      SAPE     H16R     HAL2     0.900000E-01   1.00800           0
     15924 MEMB     138      SAPE     H16S     HAL2     0.900000E-01   1.00800           0
     15925 MEMB     138      SAPE     C217     CTL2    -0.180000       12.0110           0
     15926 MEMB     138      SAPE     H17R     HAL2     0.900000E-01   1.00800           0
     15927 MEMB     138      SAPE     H17S     HAL2     0.900000E-01   1.00800           0
     15928 MEMB     138      SAPE     C218     CTL2    -0.180000       12.0110           0
     15929 MEMB     138      SAPE     H18R     HAL2     0.900000E-01   1.00800           0
     15930 MEMB     138      SAPE     H18S     HAL2     0.900000E-01   1.00800           0
     15931 MEMB     138      SAPE     C219     CTL2    -0.180000       12.0110           0
     15932 MEMB     138      SAPE     H19R     HAL2     0.900000E-01   1.00800           0
     15933 MEMB     138      SAPE     H19S     HAL2     0.900000E-01   1.00800           0
     15934 MEMB     138      SAPE     C220     CTL3    -0.270000       12.0110           0
     15935 MEMB     138      SAPE     H20R     HAL3     0.900000E-01   1.00800           0
     15936 MEMB     138      SAPE     H20S     HAL3     0.900000E-01   1.00800           0
     15937 MEMB     138      SAPE     H20T     HAL3     0.900000E-01   1.00800           0
     15938 MEMB     138      SAPE     C33      CTL2    -0.180000       12.0110           0
     15939 MEMB     138      SAPE     H3X      HAL2     0.900000E-01   1.00800           0
     15940 MEMB     138      SAPE     H3Y      HAL2     0.900000E-01   1.00800           0
     15941 MEMB     138      SAPE     C34      CTL2    -0.180000       12.0110           0
     15942 MEMB     138      SAPE     H4X      HAL2     0.900000E-01   1.00800           0
     15943 MEMB     138      SAPE     H4Y      HAL2     0.900000E-01   1.00800           0
     15944 MEMB     138      SAPE     C35      CTL2    -0.180000       12.0110           0
     15945 MEMB     138      SAPE     H5X      HAL2     0.900000E-01   1.00800           0
     15946 MEMB     138      SAPE     H5Y      HAL2     0.900000E-01   1.00800           0
     15947 MEMB     138      SAPE     C36      CTL2    -0.180000       12.0110           0
     15948 MEMB     138      SAPE     H6X      HAL2     0.900000E-01   1.00800           0
     15949 MEMB     138      SAPE     H6Y      HAL2     0.900000E-01   1.00800           0
     15950 MEMB     138      SAPE     C37      CTL2    -0.180000       12.0110           0
     15951 MEMB     138      SAPE     H7X      HAL2     0.900000E-01   1.00800           0
     15952 MEMB     138      SAPE     H7Y      HAL2     0.900000E-01   1.00800           0
     15953 MEMB     138      SAPE     C38      CTL2    -0.180000       12.0110           0
     15954 MEMB     138      SAPE     H8X      HAL2     0.900000E-01   1.00800           0
     15955 MEMB     138      SAPE     H8Y      HAL2     0.900000E-01   1.00800           0
     15956 MEMB     138      SAPE     C39      CTL2    -0.180000       12.0110           0
     15957 MEMB     138      SAPE     H9X      HAL2     0.900000E-01   1.00800           0
     15958 MEMB     138      SAPE     H9Y      HAL2     0.900000E-01   1.00800           0
     15959 MEMB     138      SAPE     C310     CTL2    -0.180000       12.0110           0
     15960 MEMB     138      SAPE     H10X     HAL2     0.900000E-01   1.00800           0
     15961 MEMB     138      SAPE     H10Y     HAL2     0.900000E-01   1.00800           0
     15962 MEMB     138      SAPE     C311     CTL2    -0.180000       12.0110           0
     15963 MEMB     138      SAPE     H11X     HAL2     0.900000E-01   1.00800           0
     15964 MEMB     138      SAPE     H11Y     HAL2     0.900000E-01   1.00800           0
     15965 MEMB     138      SAPE     C312     CTL2    -0.180000       12.0110           0
     15966 MEMB     138      SAPE     H12X     HAL2     0.900000E-01   1.00800           0
     15967 MEMB     138      SAPE     H12Y     HAL2     0.900000E-01   1.00800           0
     15968 MEMB     138      SAPE     C313     CTL2    -0.180000       12.0110           0
     15969 MEMB     138      SAPE     H13X     HAL2     0.900000E-01   1.00800           0
     15970 MEMB     138      SAPE     H13Y     HAL2     0.900000E-01   1.00800           0
     15971 MEMB     138      SAPE     C314     CTL2    -0.180000       12.0110           0
     15972 MEMB     138      SAPE     H14X     HAL2     0.900000E-01   1.00800           0
     15973 MEMB     138      SAPE     H14Y     HAL2     0.900000E-01   1.00800           0
     15974 MEMB     138      SAPE     C315     CTL2    -0.180000       12.0110           0
     15975 MEMB     138      SAPE     H15X     HAL2     0.900000E-01   1.00800           0
     15976 MEMB     138      SAPE     H15Y     HAL2     0.900000E-01   1.00800           0
     15977 MEMB     138      SAPE     C316     CTL2    -0.180000       12.0110           0
     15978 MEMB     138      SAPE     H16X     HAL2     0.900000E-01   1.00800           0
     15979 MEMB     138      SAPE     H16Y     HAL2     0.900000E-01   1.00800           0
     15980 MEMB     138      SAPE     C317     CTL2    -0.180000       12.0110           0
     15981 MEMB     138      SAPE     H17X     HAL2     0.900000E-01   1.00800           0
     15982 MEMB     138      SAPE     H17Y     HAL2     0.900000E-01   1.00800           0
     15983 MEMB     138      SAPE     C318     CTL3    -0.270000       12.0110           0
     15984 MEMB     138      SAPE     H18X     HAL3     0.900000E-01   1.00800           0
     15985 MEMB     138      SAPE     H18Y     HAL3     0.900000E-01   1.00800           0
     15986 MEMB     138      SAPE     H18Z     HAL3     0.900000E-01   1.00800           0
     15987 MEMB     139      CHL1     C3       CRL1     0.140000       12.0110           0
     15988 MEMB     139      CHL1     H3       HGA1     0.900000E-01   1.00800           0
     15989 MEMB     139      CHL1     O3       OHL     -0.660000       15.9994           0
     15990 MEMB     139      CHL1     H3'      HOL      0.430000       1.00800           0
     15991 MEMB     139      CHL1     C4       CRL2    -0.180000       12.0110           0
     15992 MEMB     139      CHL1     H4A      HGA2     0.900000E-01   1.00800           0
     15993 MEMB     139      CHL1     H4B      HGA2     0.900000E-01   1.00800           0
     15994 MEMB     139      CHL1     C5       CEL1      0.00000       12.0110           0
     15995 MEMB     139      CHL1     C6       CEL1    -0.150000       12.0110           0
     15996 MEMB     139      CHL1     H6       HEL1     0.150000       1.00800           0
     15997 MEMB     139      CHL1     C7       CRL2    -0.180000       12.0110           0
     15998 MEMB     139      CHL1     H7A      HGA2     0.900000E-01   1.00800           0
     15999 MEMB     139      CHL1     H7B      HGA2     0.900000E-01   1.00800           0
     16000 MEMB     139      CHL1     C8       CRL1    -0.900000E-01   12.0110           0
     16001 MEMB     139      CHL1     H8       HGA1     0.900000E-01   1.00800           0
     16002 MEMB     139      CHL1     C14      CRL1    -0.900000E-01   12.0110           0
     16003 MEMB     139      CHL1     H14      HGA1     0.900000E-01   1.00800           0
     16004 MEMB     139      CHL1     C15      CRL2    -0.180000       12.0110           0
     16005 MEMB     139      CHL1     H15A     HGA2     0.900000E-01   1.00800           0
     16006 MEMB     139      CHL1     H15B     HGA2     0.900000E-01   1.00800           0
     16007 MEMB     139      CHL1     C16      CRL2    -0.180000       12.0110           0
     16008 MEMB     139      CHL1     H16A     HGA2     0.900000E-01   1.00800           0
     16009 MEMB     139      CHL1     H16B     HGA2     0.900000E-01   1.00800           0
     16010 MEMB     139      CHL1     C17      CRL1    -0.900000E-01   12.0110           0
     16011 MEMB     139      CHL1     H17      HGA1     0.900000E-01   1.00800           0
     16012 MEMB     139      CHL1     C13      CRL1      0.00000       12.0110           0
     16013 MEMB     139      CHL1     C18      CTL3    -0.270000       12.0110           0
     16014 MEMB     139      CHL1     H18A     HAL3     0.900000E-01   1.00800           0
     16015 MEMB     139      CHL1     H18B     HAL3     0.900000E-01   1.00800           0
     16016 MEMB     139      CHL1     H18C     HAL3     0.900000E-01   1.00800           0
     16017 MEMB     139      CHL1     C12      CRL2    -0.180000       12.0110           0
     16018 MEMB     139      CHL1     H12A     HGA2     0.900000E-01   1.00800           0
     16019 MEMB     139      CHL1     H12B     HGA2     0.900000E-01   1.00800           0
     16020 MEMB     139      CHL1     C11      CRL2    -0.180000       12.0110           0
     16021 MEMB     139      CHL1     H11A     HGA2     0.900000E-01   1.00800           0
     16022 MEMB     139      CHL1     H11B     HGA2     0.900000E-01   1.00800           0
     16023 MEMB     139      CHL1     C9       CRL1    -0.900000E-01   12.0110           0
     16024 MEMB     139      CHL1     H9       HGA1     0.900000E-01   1.00800           0
     16025 MEMB     139      CHL1     C10      CRL1      0.00000       12.0110           0
     16026 MEMB     139      CHL1     C19      CTL3    -0.270000       12.0110           0
     16027 MEMB     139      CHL1     H19A     HAL3     0.900000E-01   1.00800           0
     16028 MEMB     139      CHL1     H19B     HAL3     0.900000E-01   1.00800           0
     16029 MEMB     139      CHL1     H19C     HAL3     0.900000E-01   1.00800           0
     16030 MEMB     139      CHL1     C1       CRL2    -0.180000       12.0110           0
     16031 MEMB     139      CHL1     H1A      HGA2     0.900000E-01   1.00800           0
     16032 MEMB     139      CHL1     H1B      HGA2     0.900000E-01   1.00800           0
     16033 MEMB     139      CHL1     C2       CRL2    -0.180000       12.0110           0
     16034 MEMB     139      CHL1     H2A      HGA2     0.900000E-01   1.00800           0
     16035 MEMB     139      CHL1     H2B      HGA2     0.900000E-01   1.00800           0
     16036 MEMB     139      CHL1     C20      CTL1    -0.900000E-01   12.0110           0
     16037 MEMB     139      CHL1     H20      HAL1     0.900000E-01   1.00800           0
     16038 MEMB     139      CHL1     C21      CTL3    -0.270000       12.0110           0
     16039 MEMB     139      CHL1     H21A     HAL3     0.900000E-01   1.00800           0
     16040 MEMB     139      CHL1     H21B     HAL3     0.900000E-01   1.00800           0
     16041 MEMB     139      CHL1     H21C     HAL3     0.900000E-01   1.00800           0
     16042 MEMB     139      CHL1     C22      CTL2    -0.180000       12.0110           0
     16043 MEMB     139      CHL1     H22A     HAL2     0.900000E-01   1.00800           0
     16044 MEMB     139      CHL1     H22B     HAL2     0.900000E-01   1.00800           0
     16045 MEMB     139      CHL1     C23      CTL2    -0.180000       12.0110           0
     16046 MEMB     139      CHL1     H23A     HAL2     0.900000E-01   1.00800           0
     16047 MEMB     139      CHL1     H23B     HAL2     0.900000E-01   1.00800           0
     16048 MEMB     139      CHL1     C24      CTL2    -0.180000       12.0110           0
     16049 MEMB     139      CHL1     H24A     HAL2     0.900000E-01   1.00800           0
     16050 MEMB     139      CHL1     H24B     HAL2     0.900000E-01   1.00800           0
     16051 MEMB     139      CHL1     C25      CTL1    -0.900000E-01   12.0110           0
     16052 MEMB     139      CHL1     H25      HAL1     0.900000E-01   1.00800           0
     16053 MEMB     139      CHL1     C26      CTL3    -0.270000       12.0110           0
     16054 MEMB     139      CHL1     H26A     HAL3     0.900000E-01   1.00800           0
     16055 MEMB     139      CHL1     H26B     HAL3     0.900000E-01   1.00800           0
     16056 MEMB     139      CHL1     H26C     HAL3     0.900000E-01   1.00800           0
     16057 MEMB     139      CHL1     C27      CTL3    -0.270000       12.0110           0
     16058 MEMB     139      CHL1     H27A     HAL3     0.900000E-01   1.00800           0
     16059 MEMB     139      CHL1     H27B     HAL3     0.900000E-01   1.00800           0
     16060 MEMB     139      CHL1     H27C     HAL3     0.900000E-01   1.00800           0
     16061 MEMB     140      OSM      N        NTL     -0.600000       14.0070           0
     16062 MEMB     140      OSM      C15      CTL5    -0.350000       12.0110           0
     16063 MEMB     140      OSM      H15A     HL       0.250000       1.00800           0
     16064 MEMB     140      OSM      H15B     HL       0.250000       1.00800           0
     16065 MEMB     140      OSM      H15C     HL       0.250000       1.00800           0
     16066 MEMB     140      OSM      C14      CTL5    -0.350000       12.0110           0
     16067 MEMB     140      OSM      H14A     HL       0.250000       1.00800           0
     16068 MEMB     140      OSM      H14B     HL       0.250000       1.00800           0
     16069 MEMB     140      OSM      H14C     HL       0.250000       1.00800           0
     16070 MEMB     140      OSM      C13      CTL5    -0.350000       12.0110           0
     16071 MEMB     140      OSM      H13A     HL       0.250000       1.00800           0
     16072 MEMB     140      OSM      H13B     HL       0.250000       1.00800           0
     16073 MEMB     140      OSM      H13C     HL       0.250000       1.00800           0
     16074 MEMB     140      OSM      C12      CTL2    -0.100000       12.0110           0
     16075 MEMB     140      OSM      H12A     HL       0.250000       1.00800           0
     16076 MEMB     140      OSM      H12B     HL       0.250000       1.00800           0
     16077 MEMB     140      OSM      C11      CTL2    -0.800000E-01   12.0110           0
     16078 MEMB     140      OSM      H11A     HAL2     0.900000E-01   1.00800           0
     16079 MEMB     140      OSM      H11B     HAL2     0.900000E-01   1.00800           0
     16080 MEMB     140      OSM      P        PL        1.50000       30.9740           0
     16081 MEMB     140      OSM      O13      O2L     -0.780000       15.9994           0
     16082 MEMB     140      OSM      O14      O2L     -0.780000       15.9994           0
     16083 MEMB     140      OSM      O11      OSLP    -0.570000       15.9994           0
     16084 MEMB     140      OSM      O12      OSLP    -0.570000       15.9994           0
     16085 MEMB     140      OSM      C1S      CTL2    -0.800000E-01   12.0110           0
     16086 MEMB     140      OSM      H1S      HAL2     0.900000E-01   1.00800           0
     16087 MEMB     140      OSM      H1T      HAL2     0.900000E-01   1.00800           0
     16088 MEMB     140      OSM      NF       NHL     -0.700000       14.0070           0
     16089 MEMB     140      OSM      HNF      H        0.350000       1.00800           0
     16090 MEMB     140      OSM      C2S      CTL1     0.300000       12.0110           0
     16091 MEMB     140      OSM      H2S      HAL1     0.500000E-01   1.00800           0
     16092 MEMB     140      OSM      C3S      CTO1     0.500000       12.0110           0
     16093 MEMB     140      OSM      H3S      HAL1    -0.110000       1.00800           0
     16094 MEMB     140      OSM      O3       OHL     -0.690000       15.9994           0
     16095 MEMB     140      OSM      HO3      HOL      0.300000       1.00800           0
     16096 MEMB     140      OSM      C4S      CEL3    -0.150000       12.0110           0
     16097 MEMB     140      OSM      H4S      HEL1     0.150000       1.00800           0
     16098 MEMB     140      OSM      C5S      CEL3    -0.150000       12.0110           0
     16099 MEMB     140      OSM      H5S      HEL1     0.150000       1.00800           0
     16100 MEMB     140      OSM      C6S      CTL2    -0.180000       12.0110           0
     16101 MEMB     140      OSM      H6S      HAL2     0.900000E-01   1.00800           0
     16102 MEMB     140      OSM      H6T      HAL2     0.900000E-01   1.00800           0
     16103 MEMB     140      OSM      C7S      CTL2    -0.180000       12.0110           0
     16104 MEMB     140      OSM      H7S      HAL2     0.900000E-01   1.00800           0
     16105 MEMB     140      OSM      H7T      HAL2     0.900000E-01   1.00800           0
     16106 MEMB     140      OSM      C8S      CTL2    -0.180000       12.0110           0
     16107 MEMB     140      OSM      H8S      HAL2     0.900000E-01   1.00800           0
     16108 MEMB     140      OSM      H8T      HAL2     0.900000E-01   1.00800           0
     16109 MEMB     140      OSM      C9S      CTL2    -0.180000       12.0110           0
     16110 MEMB     140      OSM      H9S      HAL2     0.900000E-01   1.00800           0
     16111 MEMB     140      OSM      H9T      HAL2     0.900000E-01   1.00800           0
     16112 MEMB     140      OSM      C10S     CTL2    -0.180000       12.0110           0
     16113 MEMB     140      OSM      H10S     HAL2     0.900000E-01   1.00800           0
     16114 MEMB     140      OSM      H10T     HAL2     0.900000E-01   1.00800           0
     16115 MEMB     140      OSM      C11S     CTL2    -0.180000       12.0110           0
     16116 MEMB     140      OSM      H11S     HAL2     0.900000E-01   1.00800           0
     16117 MEMB     140      OSM      H11T     HAL2     0.900000E-01   1.00800           0
     16118 MEMB     140      OSM      C12S     CTL2    -0.180000       12.0110           0
     16119 MEMB     140      OSM      H12S     HAL2     0.900000E-01   1.00800           0
     16120 MEMB     140      OSM      H12T     HAL2     0.900000E-01   1.00800           0
     16121 MEMB     140      OSM      C13S     CTL2    -0.180000       12.0110           0
     16122 MEMB     140      OSM      H13S     HAL2     0.900000E-01   1.00800           0
     16123 MEMB     140      OSM      H13T     HAL2     0.900000E-01   1.00800           0
     16124 MEMB     140      OSM      C14S     CTL2    -0.180000       12.0110           0
     16125 MEMB     140      OSM      H14S     HAL2     0.900000E-01   1.00800           0
     16126 MEMB     140      OSM      H14T     HAL2     0.900000E-01   1.00800           0
     16127 MEMB     140      OSM      C15S     CTL2    -0.180000       12.0110           0
     16128 MEMB     140      OSM      H15S     HAL2     0.900000E-01   1.00800           0
     16129 MEMB     140      OSM      H15T     HAL2     0.900000E-01   1.00800           0
     16130 MEMB     140      OSM      C16S     CTL2    -0.180000       12.0110           0
     16131 MEMB     140      OSM      H16S     HAL2     0.900000E-01   1.00800           0
     16132 MEMB     140      OSM      H16T     HAL2     0.900000E-01   1.00800           0
     16133 MEMB     140      OSM      C17S     CTL2    -0.180000       12.0110           0
     16134 MEMB     140      OSM      H17S     HAL2     0.900000E-01   1.00800           0
     16135 MEMB     140      OSM      H17T     HAL2     0.900000E-01   1.00800           0
     16136 MEMB     140      OSM      C18S     CTL3    -0.270000       12.0110           0
     16137 MEMB     140      OSM      H18S     HAL3     0.900000E-01   1.00800           0
     16138 MEMB     140      OSM      H18T     HAL3     0.900000E-01   1.00800           0
     16139 MEMB     140      OSM      H18U     HAL3     0.900000E-01   1.00800           0
     16140 MEMB     140      OSM      C1F      C        0.550000       12.0110           0
     16141 MEMB     140      OSM      OF       O       -0.600000       15.9994           0
     16142 MEMB     140      OSM      C2F      CTL2    -0.700000E-01   12.0110           0
     16143 MEMB     140      OSM      H2F      HAL2     0.600000E-01   1.00800           0
     16144 MEMB     140      OSM      H2G      HAL2     0.600000E-01   1.00800           0
     16145 MEMB     140      OSM      C3F      CTL2    -0.180000       12.0110           0
     16146 MEMB     140      OSM      H3F      HAL2     0.900000E-01   1.00800           0
     16147 MEMB     140      OSM      H3G      HAL2     0.900000E-01   1.00800           0
     16148 MEMB     140      OSM      C4F      CTL2    -0.180000       12.0110           0
     16149 MEMB     140      OSM      H4F      HAL2     0.900000E-01   1.00800           0
     16150 MEMB     140      OSM      H4G      HAL2     0.900000E-01   1.00800           0
     16151 MEMB     140      OSM      C5F      CTL2    -0.180000       12.0110           0
     16152 MEMB     140      OSM      H5F      HAL2     0.900000E-01   1.00800           0
     16153 MEMB     140      OSM      H5G      HAL2     0.900000E-01   1.00800           0
     16154 MEMB     140      OSM      C6F      CTL2    -0.180000       12.0110           0
     16155 MEMB     140      OSM      H6F      HAL2     0.900000E-01   1.00800           0
     16156 MEMB     140      OSM      H6G      HAL2     0.900000E-01   1.00800           0
     16157 MEMB     140      OSM      C7F      CTL2    -0.180000       12.0110           0
     16158 MEMB     140      OSM      H7F      HAL2     0.900000E-01   1.00800           0
     16159 MEMB     140      OSM      H7G      HAL2     0.900000E-01   1.00800           0
     16160 MEMB     140      OSM      C8F      CTL2    -0.180000       12.0110           0
     16161 MEMB     140      OSM      H8F      HAL2     0.900000E-01   1.00800           0
     16162 MEMB     140      OSM      H8G      HAL2     0.900000E-01   1.00800           0
     16163 MEMB     140      OSM      C9F      CEL1    -0.150000       12.0110           0
     16164 MEMB     140      OSM      H9F      HEL1     0.150000       1.00800           0
     16165 MEMB     140      OSM      C10F     CEL1    -0.150000       12.0110           0
     16166 MEMB     140      OSM      H10F     HEL1     0.150000       1.00800           0
     16167 MEMB     140      OSM      C11F     CTL2    -0.180000       12.0110           0
     16168 MEMB     140      OSM      H11F     HAL2     0.900000E-01   1.00800           0
     16169 MEMB     140      OSM      H11G     HAL2     0.900000E-01   1.00800           0
     16170 MEMB     140      OSM      C12F     CTL2    -0.180000       12.0110           0
     16171 MEMB     140      OSM      H12F     HAL2     0.900000E-01   1.00800           0
     16172 MEMB     140      OSM      H12G     HAL2     0.900000E-01   1.00800           0
     16173 MEMB     140      OSM      C13F     CTL2    -0.180000       12.0110           0
     16174 MEMB     140      OSM      H13F     HAL2     0.900000E-01   1.00800           0
     16175 MEMB     140      OSM      H13G     HAL2     0.900000E-01   1.00800           0
     16176 MEMB     140      OSM      C14F     CTL2    -0.180000       12.0110           0
     16177 MEMB     140      OSM      H14F     HAL2     0.900000E-01   1.00800           0
     16178 MEMB     140      OSM      H14G     HAL2     0.900000E-01   1.00800           0
     16179 MEMB     140      OSM      C15F     CTL2    -0.180000       12.0110           0
     16180 MEMB     140      OSM      H15F     HAL2     0.900000E-01   1.00800           0
     16181 MEMB     140      OSM      H15G     HAL2     0.900000E-01   1.00800           0
     16182 MEMB     140      OSM      C16F     CTL2    -0.180000       12.0110           0
     16183 MEMB     140      OSM      H16F     HAL2     0.900000E-01   1.00800           0
     16184 MEMB     140      OSM      H16G     HAL2     0.900000E-01   1.00800           0
     16185 MEMB     140      OSM      C17F     CTL2    -0.180000       12.0110           0
     16186 MEMB     140      OSM      H17F     HAL2     0.900000E-01   1.00800           0
     16187 MEMB     140      OSM      H17G     HAL2     0.900000E-01   1.00800           0
     16188 MEMB     140      OSM      C18F     CTL3    -0.270000       12.0110           0
     16189 MEMB     140      OSM      H18F     HAL3     0.900000E-01   1.00800           0
     16190 MEMB     140      OSM      H18G     HAL3     0.900000E-01   1.00800           0
     16191 MEMB     140      OSM      H18H     HAL3     0.900000E-01   1.00800           0
     16192 MEMB     141      SAPE     N        NH3L    -0.300000       14.0070           0
     16193 MEMB     141      SAPE     HN1      HCL      0.330000       1.00800           0
     16194 MEMB     141      SAPE     HN2      HCL      0.330000       1.00800           0
     16195 MEMB     141      SAPE     HN3      HCL      0.330000       1.00800           0
     16196 MEMB     141      SAPE     C12      CTL2     0.130000       12.0110           0
     16197 MEMB     141      SAPE     H12A     HAL2     0.900000E-01   1.00800           0
     16198 MEMB     141      SAPE     H12B     HAL2     0.900000E-01   1.00800           0
     16199 MEMB     141      SAPE     C11      CTL2    -0.800000E-01   12.0110           0
     16200 MEMB     141      SAPE     H11A     HAL2     0.900000E-01   1.00800           0
     16201 MEMB     141      SAPE     H11B     HAL2     0.900000E-01   1.00800           0
     16202 MEMB     141      SAPE     P        PL        1.50000       30.9740           0
     16203 MEMB     141      SAPE     O13      O2L     -0.780000       15.9994           0
     16204 MEMB     141      SAPE     O14      O2L     -0.780000       15.9994           0
     16205 MEMB     141      SAPE     O12      OSLP    -0.570000       15.9994           0
     16206 MEMB     141      SAPE     O11      OSLP    -0.570000       15.9994           0
     16207 MEMB     141      SAPE     C1       CTL2    -0.800000E-01   12.0110           0
     16208 MEMB     141      SAPE     HA       HAL2     0.900000E-01   1.00800           0
     16209 MEMB     141      SAPE     HB       HAL2     0.900000E-01   1.00800           0
     16210 MEMB     141      SAPE     C2       CTL1     0.170000       12.0110           0
     16211 MEMB     141      SAPE     HS       HAL1     0.900000E-01   1.00800           0
     16212 MEMB     141      SAPE     O21      OSL     -0.490000       15.9994           0
     16213 MEMB     141      SAPE     C21      CL       0.900000       12.0110           0
     16214 MEMB     141      SAPE     O22      OBL     -0.630000       15.9994           0
     16215 MEMB     141      SAPE     C22      CTL2    -0.220000       12.0110           0
     16216 MEMB     141      SAPE     H2R      HAL2     0.900000E-01   1.00800           0
     16217 MEMB     141      SAPE     H2S      HAL2     0.900000E-01   1.00800           0
     16218 MEMB     141      SAPE     C3       CTL2     0.800000E-01   12.0110           0
     16219 MEMB     141      SAPE     HX       HAL2     0.900000E-01   1.00800           0
     16220 MEMB     141      SAPE     HY       HAL2     0.900000E-01   1.00800           0
     16221 MEMB     141      SAPE     O31      OSL     -0.490000       15.9994           0
     16222 MEMB     141      SAPE     C31      CL       0.900000       12.0110           0
     16223 MEMB     141      SAPE     O32      OBL     -0.630000       15.9994           0
     16224 MEMB     141      SAPE     C32      CTL2    -0.220000       12.0110           0
     16225 MEMB     141      SAPE     H2X      HAL2     0.900000E-01   1.00800           0
     16226 MEMB     141      SAPE     H2Y      HAL2     0.900000E-01   1.00800           0
     16227 MEMB     141      SAPE     C23      CTL2    -0.180000       12.0110           0
     16228 MEMB     141      SAPE     H3R      HAL2     0.900000E-01   1.00800           0
     16229 MEMB     141      SAPE     H3S      HAL2     0.900000E-01   1.00800           0
     16230 MEMB     141      SAPE     C24      CTL2    -0.180000       12.0110           0
     16231 MEMB     141      SAPE     H4R      HAL2     0.900000E-01   1.00800           0
     16232 MEMB     141      SAPE     H4S      HAL2     0.900000E-01   1.00800           0
     16233 MEMB     141      SAPE     C25      CEL1    -0.150000       12.0110           0
     16234 MEMB     141      SAPE     H5R      HEL1     0.150000       1.00800           0
     16235 MEMB     141      SAPE     C26      CEL1    -0.150000       12.0110           0
     16236 MEMB     141      SAPE     H6R      HEL1     0.150000       1.00800           0
     16237 MEMB     141      SAPE     C27      CTL2    -0.180000       12.0110           0
     16238 MEMB     141      SAPE     H7R      HAL2     0.900000E-01   1.00800           0
     16239 MEMB     141      SAPE     H7S      HAL2     0.900000E-01   1.00800           0
     16240 MEMB     141      SAPE     C28      CEL1    -0.150000       12.0110           0
     16241 MEMB     141      SAPE     H8R      HEL1     0.150000       1.00800           0
     16242 MEMB     141      SAPE     C29      CEL1    -0.150000       12.0110           0
     16243 MEMB     141      SAPE     H9R      HEL1     0.150000       1.00800           0
     16244 MEMB     141      SAPE     C210     CTL2    -0.180000       12.0110           0
     16245 MEMB     141      SAPE     H10R     HAL2     0.900000E-01   1.00800           0
     16246 MEMB     141      SAPE     H10S     HAL2     0.900000E-01   1.00800           0
     16247 MEMB     141      SAPE     C211     CEL1    -0.150000       12.0110           0
     16248 MEMB     141      SAPE     H11R     HEL1     0.150000       1.00800           0
     16249 MEMB     141      SAPE     C212     CEL1    -0.150000       12.0110           0
     16250 MEMB     141      SAPE     H12R     HEL1     0.150000       1.00800           0
     16251 MEMB     141      SAPE     C213     CTL2    -0.180000       12.0110           0
     16252 MEMB     141      SAPE     H13R     HAL2     0.900000E-01   1.00800           0
     16253 MEMB     141      SAPE     H13S     HAL2     0.900000E-01   1.00800           0
     16254 MEMB     141      SAPE     C214     CEL1    -0.150000       12.0110           0
     16255 MEMB     141      SAPE     H14R     HEL1     0.150000       1.00800           0
     16256 MEMB     141      SAPE     C215     CEL1    -0.150000       12.0110           0
     16257 MEMB     141      SAPE     H15R     HEL1     0.150000       1.00800           0
     16258 MEMB     141      SAPE     C216     CTL2    -0.180000       12.0110           0
     16259 MEMB     141      SAPE     H16R     HAL2     0.900000E-01   1.00800           0
     16260 MEMB     141      SAPE     H16S     HAL2     0.900000E-01   1.00800           0
     16261 MEMB     141      SAPE     C217     CTL2    -0.180000       12.0110           0
     16262 MEMB     141      SAPE     H17R     HAL2     0.900000E-01   1.00800           0
     16263 MEMB     141      SAPE     H17S     HAL2     0.900000E-01   1.00800           0
     16264 MEMB     141      SAPE     C218     CTL2    -0.180000       12.0110           0
     16265 MEMB     141      SAPE     H18R     HAL2     0.900000E-01   1.00800           0
     16266 MEMB     141      SAPE     H18S     HAL2     0.900000E-01   1.00800           0
     16267 MEMB     141      SAPE     C219     CTL2    -0.180000       12.0110           0
     16268 MEMB     141      SAPE     H19R     HAL2     0.900000E-01   1.00800           0
     16269 MEMB     141      SAPE     H19S     HAL2     0.900000E-01   1.00800           0
     16270 MEMB     141      SAPE     C220     CTL3    -0.270000       12.0110           0
     16271 MEMB     141      SAPE     H20R     HAL3     0.900000E-01   1.00800           0
     16272 MEMB     141      SAPE     H20S     HAL3     0.900000E-01   1.00800           0
     16273 MEMB     141      SAPE     H20T     HAL3     0.900000E-01   1.00800           0
     16274 MEMB     141      SAPE     C33      CTL2    -0.180000       12.0110           0
     16275 MEMB     141      SAPE     H3X      HAL2     0.900000E-01   1.00800           0
     16276 MEMB     141      SAPE     H3Y      HAL2     0.900000E-01   1.00800           0
     16277 MEMB     141      SAPE     C34      CTL2    -0.180000       12.0110           0
     16278 MEMB     141      SAPE     H4X      HAL2     0.900000E-01   1.00800           0
     16279 MEMB     141      SAPE     H4Y      HAL2     0.900000E-01   1.00800           0
     16280 MEMB     141      SAPE     C35      CTL2    -0.180000       12.0110           0
     16281 MEMB     141      SAPE     H5X      HAL2     0.900000E-01   1.00800           0
     16282 MEMB     141      SAPE     H5Y      HAL2     0.900000E-01   1.00800           0
     16283 MEMB     141      SAPE     C36      CTL2    -0.180000       12.0110           0
     16284 MEMB     141      SAPE     H6X      HAL2     0.900000E-01   1.00800           0
     16285 MEMB     141      SAPE     H6Y      HAL2     0.900000E-01   1.00800           0
     16286 MEMB     141      SAPE     C37      CTL2    -0.180000       12.0110           0
     16287 MEMB     141      SAPE     H7X      HAL2     0.900000E-01   1.00800           0
     16288 MEMB     141      SAPE     H7Y      HAL2     0.900000E-01   1.00800           0
     16289 MEMB     141      SAPE     C38      CTL2    -0.180000       12.0110           0
     16290 MEMB     141      SAPE     H8X      HAL2     0.900000E-01   1.00800           0
     16291 MEMB     141      SAPE     H8Y      HAL2     0.900000E-01   1.00800           0
     16292 MEMB     141      SAPE     C39      CTL2    -0.180000       12.0110           0
     16293 MEMB     141      SAPE     H9X      HAL2     0.900000E-01   1.00800           0
     16294 MEMB     141      SAPE     H9Y      HAL2     0.900000E-01   1.00800           0
     16295 MEMB     141      SAPE     C310     CTL2    -0.180000       12.0110           0
     16296 MEMB     141      SAPE     H10X     HAL2     0.900000E-01   1.00800           0
     16297 MEMB     141      SAPE     H10Y     HAL2     0.900000E-01   1.00800           0
     16298 MEMB     141      SAPE     C311     CTL2    -0.180000       12.0110           0
     16299 MEMB     141      SAPE     H11X     HAL2     0.900000E-01   1.00800           0
     16300 MEMB     141      SAPE     H11Y     HAL2     0.900000E-01   1.00800           0
     16301 MEMB     141      SAPE     C312     CTL2    -0.180000       12.0110           0
     16302 MEMB     141      SAPE     H12X     HAL2     0.900000E-01   1.00800           0
     16303 MEMB     141      SAPE     H12Y     HAL2     0.900000E-01   1.00800           0
     16304 MEMB     141      SAPE     C313     CTL2    -0.180000       12.0110           0
     16305 MEMB     141      SAPE     H13X     HAL2     0.900000E-01   1.00800           0
     16306 MEMB     141      SAPE     H13Y     HAL2     0.900000E-01   1.00800           0
     16307 MEMB     141      SAPE     C314     CTL2    -0.180000       12.0110           0
     16308 MEMB     141      SAPE     H14X     HAL2     0.900000E-01   1.00800           0
     16309 MEMB     141      SAPE     H14Y     HAL2     0.900000E-01   1.00800           0
     16310 MEMB     141      SAPE     C315     CTL2    -0.180000       12.0110           0
     16311 MEMB     141      SAPE     H15X     HAL2     0.900000E-01   1.00800           0
     16312 MEMB     141      SAPE     H15Y     HAL2     0.900000E-01   1.00800           0
     16313 MEMB     141      SAPE     C316     CTL2    -0.180000       12.0110           0
     16314 MEMB     141      SAPE     H16X     HAL2     0.900000E-01   1.00800           0
     16315 MEMB     141      SAPE     H16Y     HAL2     0.900000E-01   1.00800           0
     16316 MEMB     141      SAPE     C317     CTL2    -0.180000       12.0110           0
     16317 MEMB     141      SAPE     H17X     HAL2     0.900000E-01   1.00800           0
     16318 MEMB     141      SAPE     H17Y     HAL2     0.900000E-01   1.00800           0
     16319 MEMB     141      SAPE     C318     CTL3    -0.270000       12.0110           0
     16320 MEMB     141      SAPE     H18X     HAL3     0.900000E-01   1.00800           0
     16321 MEMB     141      SAPE     H18Y     HAL3     0.900000E-01   1.00800           0
     16322 MEMB     141      SAPE     H18Z     HAL3     0.900000E-01   1.00800           0
     16323 MEMB     142      CHL1     C3       CRL1     0.140000       12.0110           0
     16324 MEMB     142      CHL1     H3       HGA1     0.900000E-01   1.00800           0
     16325 MEMB     142      CHL1     O3       OHL     -0.660000       15.9994           0
     16326 MEMB     142      CHL1     H3'      HOL      0.430000       1.00800           0
     16327 MEMB     142      CHL1     C4       CRL2    -0.180000       12.0110           0
     16328 MEMB     142      CHL1     H4A      HGA2     0.900000E-01   1.00800           0
     16329 MEMB     142      CHL1     H4B      HGA2     0.900000E-01   1.00800           0
     16330 MEMB     142      CHL1     C5       CEL1      0.00000       12.0110           0
     16331 MEMB     142      CHL1     C6       CEL1    -0.150000       12.0110           0
     16332 MEMB     142      CHL1     H6       HEL1     0.150000       1.00800           0
     16333 MEMB     142      CHL1     C7       CRL2    -0.180000       12.0110           0
     16334 MEMB     142      CHL1     H7A      HGA2     0.900000E-01   1.00800           0
     16335 MEMB     142      CHL1     H7B      HGA2     0.900000E-01   1.00800           0
     16336 MEMB     142      CHL1     C8       CRL1    -0.900000E-01   12.0110           0
     16337 MEMB     142      CHL1     H8       HGA1     0.900000E-01   1.00800           0
     16338 MEMB     142      CHL1     C14      CRL1    -0.900000E-01   12.0110           0
     16339 MEMB     142      CHL1     H14      HGA1     0.900000E-01   1.00800           0
     16340 MEMB     142      CHL1     C15      CRL2    -0.180000       12.0110           0
     16341 MEMB     142      CHL1     H15A     HGA2     0.900000E-01   1.00800           0
     16342 MEMB     142      CHL1     H15B     HGA2     0.900000E-01   1.00800           0
     16343 MEMB     142      CHL1     C16      CRL2    -0.180000       12.0110           0
     16344 MEMB     142      CHL1     H16A     HGA2     0.900000E-01   1.00800           0
     16345 MEMB     142      CHL1     H16B     HGA2     0.900000E-01   1.00800           0
     16346 MEMB     142      CHL1     C17      CRL1    -0.900000E-01   12.0110           0
     16347 MEMB     142      CHL1     H17      HGA1     0.900000E-01   1.00800           0
     16348 MEMB     142      CHL1     C13      CRL1      0.00000       12.0110           0
     16349 MEMB     142      CHL1     C18      CTL3    -0.270000       12.0110           0
     16350 MEMB     142      CHL1     H18A     HAL3     0.900000E-01   1.00800           0
     16351 MEMB     142      CHL1     H18B     HAL3     0.900000E-01   1.00800           0
     16352 MEMB     142      CHL1     H18C     HAL3     0.900000E-01   1.00800           0
     16353 MEMB     142      CHL1     C12      CRL2    -0.180000       12.0110           0
     16354 MEMB     142      CHL1     H12A     HGA2     0.900000E-01   1.00800           0
     16355 MEMB     142      CHL1     H12B     HGA2     0.900000E-01   1.00800           0
     16356 MEMB     142      CHL1     C11      CRL2    -0.180000       12.0110           0
     16357 MEMB     142      CHL1     H11A     HGA2     0.900000E-01   1.00800           0
     16358 MEMB     142      CHL1     H11B     HGA2     0.900000E-01   1.00800           0
     16359 MEMB     142      CHL1     C9       CRL1    -0.900000E-01   12.0110           0
     16360 MEMB     142      CHL1     H9       HGA1     0.900000E-01   1.00800           0
     16361 MEMB     142      CHL1     C10      CRL1      0.00000       12.0110           0
     16362 MEMB     142      CHL1     C19      CTL3    -0.270000       12.0110           0
     16363 MEMB     142      CHL1     H19A     HAL3     0.900000E-01   1.00800           0
     16364 MEMB     142      CHL1     H19B     HAL3     0.900000E-01   1.00800           0
     16365 MEMB     142      CHL1     H19C     HAL3     0.900000E-01   1.00800           0
     16366 MEMB     142      CHL1     C1       CRL2    -0.180000       12.0110           0
     16367 MEMB     142      CHL1     H1A      HGA2     0.900000E-01   1.00800           0
     16368 MEMB     142      CHL1     H1B      HGA2     0.900000E-01   1.00800           0
     16369 MEMB     142      CHL1     C2       CRL2    -0.180000       12.0110           0
     16370 MEMB     142      CHL1     H2A      HGA2     0.900000E-01   1.00800           0
     16371 MEMB     142      CHL1     H2B      HGA2     0.900000E-01   1.00800           0
     16372 MEMB     142      CHL1     C20      CTL1    -0.900000E-01   12.0110           0
     16373 MEMB     142      CHL1     H20      HAL1     0.900000E-01   1.00800           0
     16374 MEMB     142      CHL1     C21      CTL3    -0.270000       12.0110           0
     16375 MEMB     142      CHL1     H21A     HAL3     0.900000E-01   1.00800           0
     16376 MEMB     142      CHL1     H21B     HAL3     0.900000E-01   1.00800           0
     16377 MEMB     142      CHL1     H21C     HAL3     0.900000E-01   1.00800           0
     16378 MEMB     142      CHL1     C22      CTL2    -0.180000       12.0110           0
     16379 MEMB     142      CHL1     H22A     HAL2     0.900000E-01   1.00800           0
     16380 MEMB     142      CHL1     H22B     HAL2     0.900000E-01   1.00800           0
     16381 MEMB     142      CHL1     C23      CTL2    -0.180000       12.0110           0
     16382 MEMB     142      CHL1     H23A     HAL2     0.900000E-01   1.00800           0
     16383 MEMB     142      CHL1     H23B     HAL2     0.900000E-01   1.00800           0
     16384 MEMB     142      CHL1     C24      CTL2    -0.180000       12.0110           0
     16385 MEMB     142      CHL1     H24A     HAL2     0.900000E-01   1.00800           0
     16386 MEMB     142      CHL1     H24B     HAL2     0.900000E-01   1.00800           0
     16387 MEMB     142      CHL1     C25      CTL1    -0.900000E-01   12.0110           0
     16388 MEMB     142      CHL1     H25      HAL1     0.900000E-01   1.00800           0
     16389 MEMB     142      CHL1     C26      CTL3    -0.270000       12.0110           0
     16390 MEMB     142      CHL1     H26A     HAL3     0.900000E-01   1.00800           0
     16391 MEMB     142      CHL1     H26B     HAL3     0.900000E-01   1.00800           0
     16392 MEMB     142      CHL1     H26C     HAL3     0.900000E-01   1.00800           0
     16393 MEMB     142      CHL1     C27      CTL3    -0.270000       12.0110           0
     16394 MEMB     142      CHL1     H27A     HAL3     0.900000E-01   1.00800           0
     16395 MEMB     142      CHL1     H27B     HAL3     0.900000E-01   1.00800           0
     16396 MEMB     142      CHL1     H27C     HAL3     0.900000E-01   1.00800           0
     16397 MEMB     143      POPC     N        NTL     -0.600000       14.0070           0
     16398 MEMB     143      POPC     C12      CTL2    -0.100000       12.0110           0
     16399 MEMB     143      POPC     H12A     HL       0.250000       1.00800           0
     16400 MEMB     143      POPC     H12B     HL       0.250000       1.00800           0
     16401 MEMB     143      POPC     C13      CTL5    -0.350000       12.0110           0
     16402 MEMB     143      POPC     H13A     HL       0.250000       1.00800           0
     16403 MEMB     143      POPC     H13B     HL       0.250000       1.00800           0
     16404 MEMB     143      POPC     H13C     HL       0.250000       1.00800           0
     16405 MEMB     143      POPC     C14      CTL5    -0.350000       12.0110           0
     16406 MEMB     143      POPC     H14A     HL       0.250000       1.00800           0
     16407 MEMB     143      POPC     H14B     HL       0.250000       1.00800           0
     16408 MEMB     143      POPC     H14C     HL       0.250000       1.00800           0
     16409 MEMB     143      POPC     C15      CTL5    -0.350000       12.0110           0
     16410 MEMB     143      POPC     H15A     HL       0.250000       1.00800           0
     16411 MEMB     143      POPC     H15B     HL       0.250000       1.00800           0
     16412 MEMB     143      POPC     H15C     HL       0.250000       1.00800           0
     16413 MEMB     143      POPC     C11      CTL2    -0.800000E-01   12.0110           0
     16414 MEMB     143      POPC     H11A     HAL2     0.900000E-01   1.00800           0
     16415 MEMB     143      POPC     H11B     HAL2     0.900000E-01   1.00800           0
     16416 MEMB     143      POPC     P        PL        1.50000       30.9740           0
     16417 MEMB     143      POPC     O13      O2L     -0.780000       15.9994           0
     16418 MEMB     143      POPC     O14      O2L     -0.780000       15.9994           0
     16419 MEMB     143      POPC     O12      OSLP    -0.570000       15.9994           0
     16420 MEMB     143      POPC     O11      OSLP    -0.570000       15.9994           0
     16421 MEMB     143      POPC     C1       CTL2    -0.800000E-01   12.0110           0
     16422 MEMB     143      POPC     HA       HAL2     0.900000E-01   1.00800           0
     16423 MEMB     143      POPC     HB       HAL2     0.900000E-01   1.00800           0
     16424 MEMB     143      POPC     C2       CTL1     0.170000       12.0110           0
     16425 MEMB     143      POPC     HS       HAL1     0.900000E-01   1.00800           0
     16426 MEMB     143      POPC     O21      OSL     -0.490000       15.9994           0
     16427 MEMB     143      POPC     C21      CL       0.900000       12.0110           0
     16428 MEMB     143      POPC     O22      OBL     -0.630000       15.9994           0
     16429 MEMB     143      POPC     C22      CTL2    -0.220000       12.0110           0
     16430 MEMB     143      POPC     H2R      HAL2     0.900000E-01   1.00800           0
     16431 MEMB     143      POPC     H2S      HAL2     0.900000E-01   1.00800           0
     16432 MEMB     143      POPC     C3       CTL2     0.800000E-01   12.0110           0
     16433 MEMB     143      POPC     HX       HAL2     0.900000E-01   1.00800           0
     16434 MEMB     143      POPC     HY       HAL2     0.900000E-01   1.00800           0
     16435 MEMB     143      POPC     O31      OSL     -0.490000       15.9994           0
     16436 MEMB     143      POPC     C31      CL       0.900000       12.0110           0
     16437 MEMB     143      POPC     O32      OBL     -0.630000       15.9994           0
     16438 MEMB     143      POPC     C32      CTL2    -0.220000       12.0110           0
     16439 MEMB     143      POPC     H2X      HAL2     0.900000E-01   1.00800           0
     16440 MEMB     143      POPC     H2Y      HAL2     0.900000E-01   1.00800           0
     16441 MEMB     143      POPC     C23      CTL2    -0.180000       12.0110           0
     16442 MEMB     143      POPC     H3R      HAL2     0.900000E-01   1.00800           0
     16443 MEMB     143      POPC     H3S      HAL2     0.900000E-01   1.00800           0
     16444 MEMB     143      POPC     C24      CTL2    -0.180000       12.0110           0
     16445 MEMB     143      POPC     H4R      HAL2     0.900000E-01   1.00800           0
     16446 MEMB     143      POPC     H4S      HAL2     0.900000E-01   1.00800           0
     16447 MEMB     143      POPC     C25      CTL2    -0.180000       12.0110           0
     16448 MEMB     143      POPC     H5R      HAL2     0.900000E-01   1.00800           0
     16449 MEMB     143      POPC     H5S      HAL2     0.900000E-01   1.00800           0
     16450 MEMB     143      POPC     C26      CTL2    -0.180000       12.0110           0
     16451 MEMB     143      POPC     H6R      HAL2     0.900000E-01   1.00800           0
     16452 MEMB     143      POPC     H6S      HAL2     0.900000E-01   1.00800           0
     16453 MEMB     143      POPC     C27      CTL2    -0.180000       12.0110           0
     16454 MEMB     143      POPC     H7R      HAL2     0.900000E-01   1.00800           0
     16455 MEMB     143      POPC     H7S      HAL2     0.900000E-01   1.00800           0
     16456 MEMB     143      POPC     C28      CTL2    -0.180000       12.0110           0
     16457 MEMB     143      POPC     H8R      HAL2     0.900000E-01   1.00800           0
     16458 MEMB     143      POPC     H8S      HAL2     0.900000E-01   1.00800           0
     16459 MEMB     143      POPC     C29      CEL1    -0.150000       12.0110           0
     16460 MEMB     143      POPC     H91      HEL1     0.150000       1.00800           0
     16461 MEMB     143      POPC     C210     CEL1    -0.150000       12.0110           0
     16462 MEMB     143      POPC     H101     HEL1     0.150000       1.00800           0
     16463 MEMB     143      POPC     C211     CTL2    -0.180000       12.0110           0
     16464 MEMB     143      POPC     H11R     HAL2     0.900000E-01   1.00800           0
     16465 MEMB     143      POPC     H11S     HAL2     0.900000E-01   1.00800           0
     16466 MEMB     143      POPC     C212     CTL2    -0.180000       12.0110           0
     16467 MEMB     143      POPC     H12R     HAL2     0.900000E-01   1.00800           0
     16468 MEMB     143      POPC     H12S     HAL2     0.900000E-01   1.00800           0
     16469 MEMB     143      POPC     C213     CTL2    -0.180000       12.0110           0
     16470 MEMB     143      POPC     H13R     HAL2     0.900000E-01   1.00800           0
     16471 MEMB     143      POPC     H13S     HAL2     0.900000E-01   1.00800           0
     16472 MEMB     143      POPC     C214     CTL2    -0.180000       12.0110           0
     16473 MEMB     143      POPC     H14R     HAL2     0.900000E-01   1.00800           0
     16474 MEMB     143      POPC     H14S     HAL2     0.900000E-01   1.00800           0
     16475 MEMB     143      POPC     C215     CTL2    -0.180000       12.0110           0
     16476 MEMB     143      POPC     H15R     HAL2     0.900000E-01   1.00800           0
     16477 MEMB     143      POPC     H15S     HAL2     0.900000E-01   1.00800           0
     16478 MEMB     143      POPC     C216     CTL2    -0.180000       12.0110           0
     16479 MEMB     143      POPC     H16R     HAL2     0.900000E-01   1.00800           0
     16480 MEMB     143      POPC     H16S     HAL2     0.900000E-01   1.00800           0
     16481 MEMB     143      POPC     C217     CTL2    -0.180000       12.0110           0
     16482 MEMB     143      POPC     H17R     HAL2     0.900000E-01   1.00800           0
     16483 MEMB     143      POPC     H17S     HAL2     0.900000E-01   1.00800           0
     16484 MEMB     143      POPC     C218     CTL3    -0.270000       12.0110           0
     16485 MEMB     143      POPC     H18R     HAL3     0.900000E-01   1.00800           0
     16486 MEMB     143      POPC     H18S     HAL3     0.900000E-01   1.00800           0
     16487 MEMB     143      POPC     H18T     HAL3     0.900000E-01   1.00800           0
     16488 MEMB     143      POPC     C33      CTL2    -0.180000       12.0110           0
     16489 MEMB     143      POPC     H3X      HAL2     0.900000E-01   1.00800           0
     16490 MEMB     143      POPC     H3Y      HAL2     0.900000E-01   1.00800           0
     16491 MEMB     143      POPC     C34      CTL2    -0.180000       12.0110           0
     16492 MEMB     143      POPC     H4X      HAL2     0.900000E-01   1.00800           0
     16493 MEMB     143      POPC     H4Y      HAL2     0.900000E-01   1.00800           0
     16494 MEMB     143      POPC     C35      CTL2    -0.180000       12.0110           0
     16495 MEMB     143      POPC     H5X      HAL2     0.900000E-01   1.00800           0
     16496 MEMB     143      POPC     H5Y      HAL2     0.900000E-01   1.00800           0
     16497 MEMB     143      POPC     C36      CTL2    -0.180000       12.0110           0
     16498 MEMB     143      POPC     H6X      HAL2     0.900000E-01   1.00800           0
     16499 MEMB     143      POPC     H6Y      HAL2     0.900000E-01   1.00800           0
     16500 MEMB     143      POPC     C37      CTL2    -0.180000       12.0110           0
     16501 MEMB     143      POPC     H7X      HAL2     0.900000E-01   1.00800           0
     16502 MEMB     143      POPC     H7Y      HAL2     0.900000E-01   1.00800           0
     16503 MEMB     143      POPC     C38      CTL2    -0.180000       12.0110           0
     16504 MEMB     143      POPC     H8X      HAL2     0.900000E-01   1.00800           0
     16505 MEMB     143      POPC     H8Y      HAL2     0.900000E-01   1.00800           0
     16506 MEMB     143      POPC     C39      CTL2    -0.180000       12.0110           0
     16507 MEMB     143      POPC     H9X      HAL2     0.900000E-01   1.00800           0
     16508 MEMB     143      POPC     H9Y      HAL2     0.900000E-01   1.00800           0
     16509 MEMB     143      POPC     C310     CTL2    -0.180000       12.0110           0
     16510 MEMB     143      POPC     H10X     HAL2     0.900000E-01   1.00800           0
     16511 MEMB     143      POPC     H10Y     HAL2     0.900000E-01   1.00800           0
     16512 MEMB     143      POPC     C311     CTL2    -0.180000       12.0110           0
     16513 MEMB     143      POPC     H11X     HAL2     0.900000E-01   1.00800           0
     16514 MEMB     143      POPC     H11Y     HAL2     0.900000E-01   1.00800           0
     16515 MEMB     143      POPC     C312     CTL2    -0.180000       12.0110           0
     16516 MEMB     143      POPC     H12X     HAL2     0.900000E-01   1.00800           0
     16517 MEMB     143      POPC     H12Y     HAL2     0.900000E-01   1.00800           0
     16518 MEMB     143      POPC     C313     CTL2    -0.180000       12.0110           0
     16519 MEMB     143      POPC     H13X     HAL2     0.900000E-01   1.00800           0
     16520 MEMB     143      POPC     H13Y     HAL2     0.900000E-01   1.00800           0
     16521 MEMB     143      POPC     C314     CTL2    -0.180000       12.0110           0
     16522 MEMB     143      POPC     H14X     HAL2     0.900000E-01   1.00800           0
     16523 MEMB     143      POPC     H14Y     HAL2     0.900000E-01   1.00800           0
     16524 MEMB     143      POPC     C315     CTL2    -0.180000       12.0110           0
     16525 MEMB     143      POPC     H15X     HAL2     0.900000E-01   1.00800           0
     16526 MEMB     143      POPC     H15Y     HAL2     0.900000E-01   1.00800           0
     16527 MEMB     143      POPC     C316     CTL3    -0.270000       12.0110           0
     16528 MEMB     143      POPC     H16X     HAL3     0.900000E-01   1.00800           0
     16529 MEMB     143      POPC     H16Y     HAL3     0.900000E-01   1.00800           0
     16530 MEMB     143      POPC     H16Z     HAL3     0.900000E-01   1.00800           0
     16531 MEMB     144      SAPC     N        NTL     -0.600000       14.0070           0
     16532 MEMB     144      SAPC     C12      CTL2    -0.100000       12.0110           0
     16533 MEMB     144      SAPC     H12A     HL       0.250000       1.00800           0
     16534 MEMB     144      SAPC     H12B     HL       0.250000       1.00800           0
     16535 MEMB     144      SAPC     C13      CTL5    -0.350000       12.0110           0
     16536 MEMB     144      SAPC     H13A     HL       0.250000       1.00800           0
     16537 MEMB     144      SAPC     H13B     HL       0.250000       1.00800           0
     16538 MEMB     144      SAPC     H13C     HL       0.250000       1.00800           0
     16539 MEMB     144      SAPC     C14      CTL5    -0.350000       12.0110           0
     16540 MEMB     144      SAPC     H14A     HL       0.250000       1.00800           0
     16541 MEMB     144      SAPC     H14B     HL       0.250000       1.00800           0
     16542 MEMB     144      SAPC     H14C     HL       0.250000       1.00800           0
     16543 MEMB     144      SAPC     C15      CTL5    -0.350000       12.0110           0
     16544 MEMB     144      SAPC     H15A     HL       0.250000       1.00800           0
     16545 MEMB     144      SAPC     H15B     HL       0.250000       1.00800           0
     16546 MEMB     144      SAPC     H15C     HL       0.250000       1.00800           0
     16547 MEMB     144      SAPC     C11      CTL2    -0.800000E-01   12.0110           0
     16548 MEMB     144      SAPC     H11A     HAL2     0.900000E-01   1.00800           0
     16549 MEMB     144      SAPC     H11B     HAL2     0.900000E-01   1.00800           0
     16550 MEMB     144      SAPC     P        PL        1.50000       30.9740           0
     16551 MEMB     144      SAPC     O13      O2L     -0.780000       15.9994           0
     16552 MEMB     144      SAPC     O14      O2L     -0.780000       15.9994           0
     16553 MEMB     144      SAPC     O12      OSLP    -0.570000       15.9994           0
     16554 MEMB     144      SAPC     O11      OSLP    -0.570000       15.9994           0
     16555 MEMB     144      SAPC     C1       CTL2    -0.800000E-01   12.0110           0
     16556 MEMB     144      SAPC     HA       HAL2     0.900000E-01   1.00800           0
     16557 MEMB     144      SAPC     HB       HAL2     0.900000E-01   1.00800           0
     16558 MEMB     144      SAPC     C2       CTL1     0.170000       12.0110           0
     16559 MEMB     144      SAPC     HS       HAL1     0.900000E-01   1.00800           0
     16560 MEMB     144      SAPC     O21      OSL     -0.490000       15.9994           0
     16561 MEMB     144      SAPC     C21      CL       0.900000       12.0110           0
     16562 MEMB     144      SAPC     O22      OBL     -0.630000       15.9994           0
     16563 MEMB     144      SAPC     C22      CTL2    -0.220000       12.0110           0
     16564 MEMB     144      SAPC     H2R      HAL2     0.900000E-01   1.00800           0
     16565 MEMB     144      SAPC     H2S      HAL2     0.900000E-01   1.00800           0
     16566 MEMB     144      SAPC     C3       CTL2     0.800000E-01   12.0110           0
     16567 MEMB     144      SAPC     HX       HAL2     0.900000E-01   1.00800           0
     16568 MEMB     144      SAPC     HY       HAL2     0.900000E-01   1.00800           0
     16569 MEMB     144      SAPC     O31      OSL     -0.490000       15.9994           0
     16570 MEMB     144      SAPC     C31      CL       0.900000       12.0110           0
     16571 MEMB     144      SAPC     O32      OBL     -0.630000       15.9994           0
     16572 MEMB     144      SAPC     C32      CTL2    -0.220000       12.0110           0
     16573 MEMB     144      SAPC     H2X      HAL2     0.900000E-01   1.00800           0
     16574 MEMB     144      SAPC     H2Y      HAL2     0.900000E-01   1.00800           0
     16575 MEMB     144      SAPC     C23      CTL2    -0.180000       12.0110           0
     16576 MEMB     144      SAPC     H3R      HAL2     0.900000E-01   1.00800           0
     16577 MEMB     144      SAPC     H3S      HAL2     0.900000E-01   1.00800           0
     16578 MEMB     144      SAPC     C24      CTL2    -0.180000       12.0110           0
     16579 MEMB     144      SAPC     H4R      HAL2     0.900000E-01   1.00800           0
     16580 MEMB     144      SAPC     H4S      HAL2     0.900000E-01   1.00800           0
     16581 MEMB     144      SAPC     C25      CEL1    -0.150000       12.0110           0
     16582 MEMB     144      SAPC     H5R      HEL1     0.150000       1.00800           0
     16583 MEMB     144      SAPC     C26      CEL1    -0.150000       12.0110           0
     16584 MEMB     144      SAPC     H6R      HEL1     0.150000       1.00800           0
     16585 MEMB     144      SAPC     C27      CTL2    -0.180000       12.0110           0
     16586 MEMB     144      SAPC     H7R      HAL2     0.900000E-01   1.00800           0
     16587 MEMB     144      SAPC     H7S      HAL2     0.900000E-01   1.00800           0
     16588 MEMB     144      SAPC     C28      CEL1    -0.150000       12.0110           0
     16589 MEMB     144      SAPC     H8R      HEL1     0.150000       1.00800           0
     16590 MEMB     144      SAPC     C29      CEL1    -0.150000       12.0110           0
     16591 MEMB     144      SAPC     H9R      HEL1     0.150000       1.00800           0
     16592 MEMB     144      SAPC     C210     CTL2    -0.180000       12.0110           0
     16593 MEMB     144      SAPC     H10R     HAL2     0.900000E-01   1.00800           0
     16594 MEMB     144      SAPC     H10S     HAL2     0.900000E-01   1.00800           0
     16595 MEMB     144      SAPC     C211     CEL1    -0.150000       12.0110           0
     16596 MEMB     144      SAPC     H11R     HEL1     0.150000       1.00800           0
     16597 MEMB     144      SAPC     C212     CEL1    -0.150000       12.0110           0
     16598 MEMB     144      SAPC     H12R     HEL1     0.150000       1.00800           0
     16599 MEMB     144      SAPC     C213     CTL2    -0.180000       12.0110           0
     16600 MEMB     144      SAPC     H13R     HAL2     0.900000E-01   1.00800           0
     16601 MEMB     144      SAPC     H13S     HAL2     0.900000E-01   1.00800           0
     16602 MEMB     144      SAPC     C214     CEL1    -0.150000       12.0110           0
     16603 MEMB     144      SAPC     H14R     HEL1     0.150000       1.00800           0
     16604 MEMB     144      SAPC     C215     CEL1    -0.150000       12.0110           0
     16605 MEMB     144      SAPC     H15R     HEL1     0.150000       1.00800           0
     16606 MEMB     144      SAPC     C216     CTL2    -0.180000       12.0110           0
     16607 MEMB     144      SAPC     H16R     HAL2     0.900000E-01   1.00800           0
     16608 MEMB     144      SAPC     H16S     HAL2     0.900000E-01   1.00800           0
     16609 MEMB     144      SAPC     C217     CTL2    -0.180000       12.0110           0
     16610 MEMB     144      SAPC     H17R     HAL2     0.900000E-01   1.00800           0
     16611 MEMB     144      SAPC     H17S     HAL2     0.900000E-01   1.00800           0
     16612 MEMB     144      SAPC     C218     CTL2    -0.270000       12.0110           0
     16613 MEMB     144      SAPC     H18R     HAL2     0.900000E-01   1.00800           0
     16614 MEMB     144      SAPC     H18S     HAL2     0.900000E-01   1.00800           0
     16615 MEMB     144      SAPC     C219     CTL2    -0.180000       12.0110           0
     16616 MEMB     144      SAPC     H19R     HAL2     0.900000E-01   1.00800           0
     16617 MEMB     144      SAPC     H19S     HAL2     0.900000E-01   1.00800           0
     16618 MEMB     144      SAPC     C220     CTL3    -0.180000       12.0110           0
     16619 MEMB     144      SAPC     H20R     HAL3     0.900000E-01   1.00800           0
     16620 MEMB     144      SAPC     H20S     HAL3     0.900000E-01   1.00800           0
     16621 MEMB     144      SAPC     H20T     HAL3     0.900000E-01   1.00800           0
     16622 MEMB     144      SAPC     C33      CTL2    -0.180000       12.0110           0
     16623 MEMB     144      SAPC     H3X      HAL2     0.900000E-01   1.00800           0
     16624 MEMB     144      SAPC     H3Y      HAL2     0.900000E-01   1.00800           0
     16625 MEMB     144      SAPC     C34      CTL2    -0.180000       12.0110           0
     16626 MEMB     144      SAPC     H4X      HAL2     0.900000E-01   1.00800           0
     16627 MEMB     144      SAPC     H4Y      HAL2     0.900000E-01   1.00800           0
     16628 MEMB     144      SAPC     C35      CTL2    -0.180000       12.0110           0
     16629 MEMB     144      SAPC     H5X      HAL2     0.900000E-01   1.00800           0
     16630 MEMB     144      SAPC     H5Y      HAL2     0.900000E-01   1.00800           0
     16631 MEMB     144      SAPC     C36      CTL2    -0.180000       12.0110           0
     16632 MEMB     144      SAPC     H6X      HAL2     0.900000E-01   1.00800           0
     16633 MEMB     144      SAPC     H6Y      HAL2     0.900000E-01   1.00800           0
     16634 MEMB     144      SAPC     C37      CTL2    -0.180000       12.0110           0
     16635 MEMB     144      SAPC     H7X      HAL2     0.900000E-01   1.00800           0
     16636 MEMB     144      SAPC     H7Y      HAL2     0.900000E-01   1.00800           0
     16637 MEMB     144      SAPC     C38      CTL2    -0.180000       12.0110           0
     16638 MEMB     144      SAPC     H8X      HAL2     0.900000E-01   1.00800           0
     16639 MEMB     144      SAPC     H8Y      HAL2     0.900000E-01   1.00800           0
     16640 MEMB     144      SAPC     C39      CTL2    -0.180000       12.0110           0
     16641 MEMB     144      SAPC     H9X      HAL2     0.900000E-01   1.00800           0
     16642 MEMB     144      SAPC     H9Y      HAL2     0.900000E-01   1.00800           0
     16643 MEMB     144      SAPC     C310     CTL2    -0.180000       12.0110           0
     16644 MEMB     144      SAPC     H10X     HAL2     0.900000E-01   1.00800           0
     16645 MEMB     144      SAPC     H10Y     HAL2     0.900000E-01   1.00800           0
     16646 MEMB     144      SAPC     C311     CTL2    -0.180000       12.0110           0
     16647 MEMB     144      SAPC     H11X     HAL2     0.900000E-01   1.00800           0
     16648 MEMB     144      SAPC     H11Y     HAL2     0.900000E-01   1.00800           0
     16649 MEMB     144      SAPC     C312     CTL2    -0.180000       12.0110           0
     16650 MEMB     144      SAPC     H12X     HAL2     0.900000E-01   1.00800           0
     16651 MEMB     144      SAPC     H12Y     HAL2     0.900000E-01   1.00800           0
     16652 MEMB     144      SAPC     C313     CTL2    -0.180000       12.0110           0
     16653 MEMB     144      SAPC     H13X     HAL2     0.900000E-01   1.00800           0
     16654 MEMB     144      SAPC     H13Y     HAL2     0.900000E-01   1.00800           0
     16655 MEMB     144      SAPC     C314     CTL2    -0.180000       12.0110           0
     16656 MEMB     144      SAPC     H14X     HAL2     0.900000E-01   1.00800           0
     16657 MEMB     144      SAPC     H14Y     HAL2     0.900000E-01   1.00800           0
     16658 MEMB     144      SAPC     C315     CTL2    -0.180000       12.0110           0
     16659 MEMB     144      SAPC     H15X     HAL2     0.900000E-01   1.00800           0
     16660 MEMB     144      SAPC     H15Y     HAL2     0.900000E-01   1.00800           0
     16661 MEMB     144      SAPC     C316     CTL2    -0.180000       12.0110           0
     16662 MEMB     144      SAPC     H16X     HAL2     0.900000E-01   1.00800           0
     16663 MEMB     144      SAPC     H16Y     HAL2     0.900000E-01   1.00800           0
     16664 MEMB     144      SAPC     C317     CTL2    -0.180000       12.0110           0
     16665 MEMB     144      SAPC     H17X     HAL2     0.900000E-01   1.00800           0
     16666 MEMB     144      SAPC     H17Y     HAL2     0.900000E-01   1.00800           0
     16667 MEMB     144      SAPC     C318     CTL3    -0.270000       12.0110           0
     16668 MEMB     144      SAPC     H18X     HAL3     0.900000E-01   1.00800           0
     16669 MEMB     144      SAPC     H18Y     HAL3     0.900000E-01   1.00800           0
     16670 MEMB     144      SAPC     H18Z     HAL3     0.900000E-01   1.00800           0
     16671 MEMB     145      SLPC     N        NTL     -0.600000       14.0070           0
     16672 MEMB     145      SLPC     C13      CTL5    -0.350000       12.0110           0
     16673 MEMB     145      SLPC     H13A     HL       0.250000       1.00800           0
     16674 MEMB     145      SLPC     H13B     HL       0.250000       1.00800           0
     16675 MEMB     145      SLPC     H13C     HL       0.250000       1.00800           0
     16676 MEMB     145      SLPC     C14      CTL5    -0.350000       12.0110           0
     16677 MEMB     145      SLPC     H14A     HL       0.250000       1.00800           0
     16678 MEMB     145      SLPC     H14B     HL       0.250000       1.00800           0
     16679 MEMB     145      SLPC     H14C     HL       0.250000       1.00800           0
     16680 MEMB     145      SLPC     C15      CTL5    -0.350000       12.0110           0
     16681 MEMB     145      SLPC     H15A     HL       0.250000       1.00800           0
     16682 MEMB     145      SLPC     H15B     HL       0.250000       1.00800           0
     16683 MEMB     145      SLPC     H15C     HL       0.250000       1.00800           0
     16684 MEMB     145      SLPC     C12      CTL2    -0.100000       12.0110           0
     16685 MEMB     145      SLPC     H12A     HL       0.250000       1.00800           0
     16686 MEMB     145      SLPC     H12B     HL       0.250000       1.00800           0
     16687 MEMB     145      SLPC     C11      CTL2    -0.800000E-01   12.0110           0
     16688 MEMB     145      SLPC     H11A     HAL2     0.900000E-01   1.00800           0
     16689 MEMB     145      SLPC     H11B     HAL2     0.900000E-01   1.00800           0
     16690 MEMB     145      SLPC     P        PL        1.50000       30.9740           0
     16691 MEMB     145      SLPC     O13      O2L     -0.780000       15.9994           0
     16692 MEMB     145      SLPC     O14      O2L     -0.780000       15.9994           0
     16693 MEMB     145      SLPC     O12      OSLP    -0.570000       15.9994           0
     16694 MEMB     145      SLPC     O11      OSLP    -0.570000       15.9994           0
     16695 MEMB     145      SLPC     C1       CTL2    -0.800000E-01   12.0110           0
     16696 MEMB     145      SLPC     HA       HAL2     0.900000E-01   1.00800           0
     16697 MEMB     145      SLPC     HB       HAL2     0.900000E-01   1.00800           0
     16698 MEMB     145      SLPC     C2       CTL1     0.170000       12.0110           0
     16699 MEMB     145      SLPC     HS       HAL1     0.900000E-01   1.00800           0
     16700 MEMB     145      SLPC     O21      OSL     -0.490000       15.9994           0
     16701 MEMB     145      SLPC     C21      CL       0.900000       12.0110           0
     16702 MEMB     145      SLPC     O22      OBL     -0.630000       15.9994           0
     16703 MEMB     145      SLPC     C22      CTL2    -0.220000       12.0110           0
     16704 MEMB     145      SLPC     H2R      HAL2     0.900000E-01   1.00800           0
     16705 MEMB     145      SLPC     H2S      HAL2     0.900000E-01   1.00800           0
     16706 MEMB     145      SLPC     C3       CTL2     0.800000E-01   12.0110           0
     16707 MEMB     145      SLPC     HX       HAL2     0.900000E-01   1.00800           0
     16708 MEMB     145      SLPC     HY       HAL2     0.900000E-01   1.00800           0
     16709 MEMB     145      SLPC     O31      OSL     -0.490000       15.9994           0
     16710 MEMB     145      SLPC     C31      CL       0.900000       12.0110           0
     16711 MEMB     145      SLPC     O32      OBL     -0.630000       15.9994           0
     16712 MEMB     145      SLPC     C32      CTL2    -0.220000       12.0110           0
     16713 MEMB     145      SLPC     H2X      HAL2     0.900000E-01   1.00800           0
     16714 MEMB     145      SLPC     H2Y      HAL2     0.900000E-01   1.00800           0
     16715 MEMB     145      SLPC     C23      CTL2    -0.180000       12.0110           0
     16716 MEMB     145      SLPC     H3R      HAL2     0.900000E-01   1.00800           0
     16717 MEMB     145      SLPC     H3S      HAL2     0.900000E-01   1.00800           0
     16718 MEMB     145      SLPC     C24      CTL2    -0.180000       12.0110           0
     16719 MEMB     145      SLPC     H4R      HAL2     0.900000E-01   1.00800           0
     16720 MEMB     145      SLPC     H4S      HAL2     0.900000E-01   1.00800           0
     16721 MEMB     145      SLPC     C25      CTL2    -0.180000       12.0110           0
     16722 MEMB     145      SLPC     H5R      HAL2     0.900000E-01   1.00800           0
     16723 MEMB     145      SLPC     H5S      HAL2     0.900000E-01   1.00800           0
     16724 MEMB     145      SLPC     C26      CTL2    -0.180000       12.0110           0
     16725 MEMB     145      SLPC     H6R      HAL2     0.900000E-01   1.00800           0
     16726 MEMB     145      SLPC     H6S      HAL2     0.900000E-01   1.00800           0
     16727 MEMB     145      SLPC     C27      CTL2    -0.180000       12.0110           0
     16728 MEMB     145      SLPC     H7R      HAL2     0.900000E-01   1.00800           0
     16729 MEMB     145      SLPC     H7S      HAL2     0.900000E-01   1.00800           0
     16730 MEMB     145      SLPC     C28      CTL2    -0.180000       12.0110           0
     16731 MEMB     145      SLPC     H8R      HAL2     0.900000E-01   1.00800           0
     16732 MEMB     145      SLPC     H8S      HAL2     0.900000E-01   1.00800           0
     16733 MEMB     145      SLPC     C29      CEL1    -0.150000       12.0110           0
     16734 MEMB     145      SLPC     H9R      HEL1     0.150000       1.00800           0
     16735 MEMB     145      SLPC     C210     CEL1    -0.150000       12.0110           0
     16736 MEMB     145      SLPC     H10R     HEL1     0.150000       1.00800           0
     16737 MEMB     145      SLPC     C211     CTL2    -0.180000       12.0110           0
     16738 MEMB     145      SLPC     H11R     HAL2     0.900000E-01   1.00800           0
     16739 MEMB     145      SLPC     H11S     HAL2     0.900000E-01   1.00800           0
     16740 MEMB     145      SLPC     C212     CEL1    -0.150000       12.0110           0
     16741 MEMB     145      SLPC     H12R     HEL1     0.150000       1.00800           0
     16742 MEMB     145      SLPC     C213     CEL1    -0.150000       12.0110           0
     16743 MEMB     145      SLPC     H13R     HEL1     0.150000       1.00800           0
     16744 MEMB     145      SLPC     C214     CTL2    -0.180000       12.0110           0
     16745 MEMB     145      SLPC     H14R     HAL2     0.900000E-01   1.00800           0
     16746 MEMB     145      SLPC     H14S     HAL2     0.900000E-01   1.00800           0
     16747 MEMB     145      SLPC     C215     CTL2    -0.180000       12.0110           0
     16748 MEMB     145      SLPC     H15R     HAL2     0.900000E-01   1.00800           0
     16749 MEMB     145      SLPC     H15S     HAL2     0.900000E-01   1.00800           0
     16750 MEMB     145      SLPC     C216     CTL2    -0.180000       12.0110           0
     16751 MEMB     145      SLPC     H16R     HAL2     0.900000E-01   1.00800           0
     16752 MEMB     145      SLPC     H16S     HAL2     0.900000E-01   1.00800           0
     16753 MEMB     145      SLPC     C217     CTL2    -0.180000       12.0110           0
     16754 MEMB     145      SLPC     H17R     HAL2     0.900000E-01   1.00800           0
     16755 MEMB     145      SLPC     H17S     HAL2     0.900000E-01   1.00800           0
     16756 MEMB     145      SLPC     C218     CTL3    -0.270000       12.0110           0
     16757 MEMB     145      SLPC     H18R     HAL3     0.900000E-01   1.00800           0
     16758 MEMB     145      SLPC     H18S     HAL3     0.900000E-01   1.00800           0
     16759 MEMB     145      SLPC     H18T     HAL3     0.900000E-01   1.00800           0
     16760 MEMB     145      SLPC     C33      CTL2    -0.180000       12.0110           0
     16761 MEMB     145      SLPC     H3X      HAL2     0.900000E-01   1.00800           0
     16762 MEMB     145      SLPC     H3Y      HAL2     0.900000E-01   1.00800           0
     16763 MEMB     145      SLPC     C34      CTL2    -0.180000       12.0110           0
     16764 MEMB     145      SLPC     H4X      HAL2     0.900000E-01   1.00800           0
     16765 MEMB     145      SLPC     H4Y      HAL2     0.900000E-01   1.00800           0
     16766 MEMB     145      SLPC     C35      CTL2    -0.180000       12.0110           0
     16767 MEMB     145      SLPC     H5X      HAL2     0.900000E-01   1.00800           0
     16768 MEMB     145      SLPC     H5Y      HAL2     0.900000E-01   1.00800           0
     16769 MEMB     145      SLPC     C36      CTL2    -0.180000       12.0110           0
     16770 MEMB     145      SLPC     H6X      HAL2     0.900000E-01   1.00800           0
     16771 MEMB     145      SLPC     H6Y      HAL2     0.900000E-01   1.00800           0
     16772 MEMB     145      SLPC     C37      CTL2    -0.180000       12.0110           0
     16773 MEMB     145      SLPC     H7X      HAL2     0.900000E-01   1.00800           0
     16774 MEMB     145      SLPC     H7Y      HAL2     0.900000E-01   1.00800           0
     16775 MEMB     145      SLPC     C38      CTL2    -0.180000       12.0110           0
     16776 MEMB     145      SLPC     H8X      HAL2     0.900000E-01   1.00800           0
     16777 MEMB     145      SLPC     H8Y      HAL2     0.900000E-01   1.00800           0
     16778 MEMB     145      SLPC     C39      CTL2    -0.180000       12.0110           0
     16779 MEMB     145      SLPC     H9X      HAL2     0.900000E-01   1.00800           0
     16780 MEMB     145      SLPC     H9Y      HAL2     0.900000E-01   1.00800           0
     16781 MEMB     145      SLPC     C310     CTL2    -0.180000       12.0110           0
     16782 MEMB     145      SLPC     H10X     HAL2     0.900000E-01   1.00800           0
     16783 MEMB     145      SLPC     H10Y     HAL2     0.900000E-01   1.00800           0
     16784 MEMB     145      SLPC     C311     CTL2    -0.180000       12.0110           0
     16785 MEMB     145      SLPC     H11X     HAL2     0.900000E-01   1.00800           0
     16786 MEMB     145      SLPC     H11Y     HAL2     0.900000E-01   1.00800           0
     16787 MEMB     145      SLPC     C312     CTL2    -0.180000       12.0110           0
     16788 MEMB     145      SLPC     H12X     HAL2     0.900000E-01   1.00800           0
     16789 MEMB     145      SLPC     H12Y     HAL2     0.900000E-01   1.00800           0
     16790 MEMB     145      SLPC     C313     CTL2    -0.180000       12.0110           0
     16791 MEMB     145      SLPC     H13X     HAL2     0.900000E-01   1.00800           0
     16792 MEMB     145      SLPC     H13Y     HAL2     0.900000E-01   1.00800           0
     16793 MEMB     145      SLPC     C314     CTL2    -0.180000       12.0110           0
     16794 MEMB     145      SLPC     H14X     HAL2     0.900000E-01   1.00800           0
     16795 MEMB     145      SLPC     H14Y     HAL2     0.900000E-01   1.00800           0
     16796 MEMB     145      SLPC     C315     CTL2    -0.180000       12.0110           0
     16797 MEMB     145      SLPC     H15X     HAL2     0.900000E-01   1.00800           0
     16798 MEMB     145      SLPC     H15Y     HAL2     0.900000E-01   1.00800           0
     16799 MEMB     145      SLPC     C316     CTL2    -0.180000       12.0110           0
     16800 MEMB     145      SLPC     H16X     HAL2     0.900000E-01   1.00800           0
     16801 MEMB     145      SLPC     H16Y     HAL2     0.900000E-01   1.00800           0
     16802 MEMB     145      SLPC     C317     CTL2    -0.180000       12.0110           0
     16803 MEMB     145      SLPC     H17X     HAL2     0.900000E-01   1.00800           0
     16804 MEMB     145      SLPC     H17Y     HAL2     0.900000E-01   1.00800           0
     16805 MEMB     145      SLPC     C318     CTL3    -0.270000       12.0110           0
     16806 MEMB     145      SLPC     H18X     HAL3     0.900000E-01   1.00800           0
     16807 MEMB     145      SLPC     H18Y     HAL3     0.900000E-01   1.00800           0
     16808 MEMB     145      SLPC     H18Z     HAL3     0.900000E-01   1.00800           0
     16809 MEMB     146      CHL1     C3       CRL1     0.140000       12.0110           0
     16810 MEMB     146      CHL1     H3       HGA1     0.900000E-01   1.00800           0
     16811 MEMB     146      CHL1     O3       OHL     -0.660000       15.9994           0
     16812 MEMB     146      CHL1     H3'      HOL      0.430000       1.00800           0
     16813 MEMB     146      CHL1     C4       CRL2    -0.180000       12.0110           0
     16814 MEMB     146      CHL1     H4A      HGA2     0.900000E-01   1.00800           0
     16815 MEMB     146      CHL1     H4B      HGA2     0.900000E-01   1.00800           0
     16816 MEMB     146      CHL1     C5       CEL1      0.00000       12.0110           0
     16817 MEMB     146      CHL1     C6       CEL1    -0.150000       12.0110           0
     16818 MEMB     146      CHL1     H6       HEL1     0.150000       1.00800           0
     16819 MEMB     146      CHL1     C7       CRL2    -0.180000       12.0110           0
     16820 MEMB     146      CHL1     H7A      HGA2     0.900000E-01   1.00800           0
     16821 MEMB     146      CHL1     H7B      HGA2     0.900000E-01   1.00800           0
     16822 MEMB     146      CHL1     C8       CRL1    -0.900000E-01   12.0110           0
     16823 MEMB     146      CHL1     H8       HGA1     0.900000E-01   1.00800           0
     16824 MEMB     146      CHL1     C14      CRL1    -0.900000E-01   12.0110           0
     16825 MEMB     146      CHL1     H14      HGA1     0.900000E-01   1.00800           0
     16826 MEMB     146      CHL1     C15      CRL2    -0.180000       12.0110           0
     16827 MEMB     146      CHL1     H15A     HGA2     0.900000E-01   1.00800           0
     16828 MEMB     146      CHL1     H15B     HGA2     0.900000E-01   1.00800           0
     16829 MEMB     146      CHL1     C16      CRL2    -0.180000       12.0110           0
     16830 MEMB     146      CHL1     H16A     HGA2     0.900000E-01   1.00800           0
     16831 MEMB     146      CHL1     H16B     HGA2     0.900000E-01   1.00800           0
     16832 MEMB     146      CHL1     C17      CRL1    -0.900000E-01   12.0110           0
     16833 MEMB     146      CHL1     H17      HGA1     0.900000E-01   1.00800           0
     16834 MEMB     146      CHL1     C13      CRL1      0.00000       12.0110           0
     16835 MEMB     146      CHL1     C18      CTL3    -0.270000       12.0110           0
     16836 MEMB     146      CHL1     H18A     HAL3     0.900000E-01   1.00800           0
     16837 MEMB     146      CHL1     H18B     HAL3     0.900000E-01   1.00800           0
     16838 MEMB     146      CHL1     H18C     HAL3     0.900000E-01   1.00800           0
     16839 MEMB     146      CHL1     C12      CRL2    -0.180000       12.0110           0
     16840 MEMB     146      CHL1     H12A     HGA2     0.900000E-01   1.00800           0
     16841 MEMB     146      CHL1     H12B     HGA2     0.900000E-01   1.00800           0
     16842 MEMB     146      CHL1     C11      CRL2    -0.180000       12.0110           0
     16843 MEMB     146      CHL1     H11A     HGA2     0.900000E-01   1.00800           0
     16844 MEMB     146      CHL1     H11B     HGA2     0.900000E-01   1.00800           0
     16845 MEMB     146      CHL1     C9       CRL1    -0.900000E-01   12.0110           0
     16846 MEMB     146      CHL1     H9       HGA1     0.900000E-01   1.00800           0
     16847 MEMB     146      CHL1     C10      CRL1      0.00000       12.0110           0
     16848 MEMB     146      CHL1     C19      CTL3    -0.270000       12.0110           0
     16849 MEMB     146      CHL1     H19A     HAL3     0.900000E-01   1.00800           0
     16850 MEMB     146      CHL1     H19B     HAL3     0.900000E-01   1.00800           0
     16851 MEMB     146      CHL1     H19C     HAL3     0.900000E-01   1.00800           0
     16852 MEMB     146      CHL1     C1       CRL2    -0.180000       12.0110           0
     16853 MEMB     146      CHL1     H1A      HGA2     0.900000E-01   1.00800           0
     16854 MEMB     146      CHL1     H1B      HGA2     0.900000E-01   1.00800           0
     16855 MEMB     146      CHL1     C2       CRL2    -0.180000       12.0110           0
     16856 MEMB     146      CHL1     H2A      HGA2     0.900000E-01   1.00800           0
     16857 MEMB     146      CHL1     H2B      HGA2     0.900000E-01   1.00800           0
     16858 MEMB     146      CHL1     C20      CTL1    -0.900000E-01   12.0110           0
     16859 MEMB     146      CHL1     H20      HAL1     0.900000E-01   1.00800           0
     16860 MEMB     146      CHL1     C21      CTL3    -0.270000       12.0110           0
     16861 MEMB     146      CHL1     H21A     HAL3     0.900000E-01   1.00800           0
     16862 MEMB     146      CHL1     H21B     HAL3     0.900000E-01   1.00800           0
     16863 MEMB     146      CHL1     H21C     HAL3     0.900000E-01   1.00800           0
     16864 MEMB     146      CHL1     C22      CTL2    -0.180000       12.0110           0
     16865 MEMB     146      CHL1     H22A     HAL2     0.900000E-01   1.00800           0
     16866 MEMB     146      CHL1     H22B     HAL2     0.900000E-01   1.00800           0
     16867 MEMB     146      CHL1     C23      CTL2    -0.180000       12.0110           0
     16868 MEMB     146      CHL1     H23A     HAL2     0.900000E-01   1.00800           0
     16869 MEMB     146      CHL1     H23B     HAL2     0.900000E-01   1.00800           0
     16870 MEMB     146      CHL1     C24      CTL2    -0.180000       12.0110           0
     16871 MEMB     146      CHL1     H24A     HAL2     0.900000E-01   1.00800           0
     16872 MEMB     146      CHL1     H24B     HAL2     0.900000E-01   1.00800           0
     16873 MEMB     146      CHL1     C25      CTL1    -0.900000E-01   12.0110           0
     16874 MEMB     146      CHL1     H25      HAL1     0.900000E-01   1.00800           0
     16875 MEMB     146      CHL1     C26      CTL3    -0.270000       12.0110           0
     16876 MEMB     146      CHL1     H26A     HAL3     0.900000E-01   1.00800           0
     16877 MEMB     146      CHL1     H26B     HAL3     0.900000E-01   1.00800           0
     16878 MEMB     146      CHL1     H26C     HAL3     0.900000E-01   1.00800           0
     16879 MEMB     146      CHL1     C27      CTL3    -0.270000       12.0110           0
     16880 MEMB     146      CHL1     H27A     HAL3     0.900000E-01   1.00800           0
     16881 MEMB     146      CHL1     H27B     HAL3     0.900000E-01   1.00800           0
     16882 MEMB     146      CHL1     H27C     HAL3     0.900000E-01   1.00800           0
     16883 MEMB     147      SOPE     N        NH3L    -0.300000       14.0070           0
     16884 MEMB     147      SOPE     HN1      HCL      0.330000       1.00800           0
     16885 MEMB     147      SOPE     HN2      HCL      0.330000       1.00800           0
     16886 MEMB     147      SOPE     HN3      HCL      0.330000       1.00800           0
     16887 MEMB     147      SOPE     C12      CTL2     0.130000       12.0110           0
     16888 MEMB     147      SOPE     H12A     HAL2     0.900000E-01   1.00800           0
     16889 MEMB     147      SOPE     H12B     HAL2     0.900000E-01   1.00800           0
     16890 MEMB     147      SOPE     C11      CTL2    -0.800000E-01   12.0110           0
     16891 MEMB     147      SOPE     H11A     HAL2     0.900000E-01   1.00800           0
     16892 MEMB     147      SOPE     H11B     HAL2     0.900000E-01   1.00800           0
     16893 MEMB     147      SOPE     P        PL        1.50000       30.9740           0
     16894 MEMB     147      SOPE     O13      O2L     -0.780000       15.9994           0
     16895 MEMB     147      SOPE     O14      O2L     -0.780000       15.9994           0
     16896 MEMB     147      SOPE     O12      OSLP    -0.570000       15.9994           0
     16897 MEMB     147      SOPE     O11      OSLP    -0.570000       15.9994           0
     16898 MEMB     147      SOPE     C1       CTL2    -0.800000E-01   12.0110           0
     16899 MEMB     147      SOPE     HA       HAL2     0.900000E-01   1.00800           0
     16900 MEMB     147      SOPE     HB       HAL2     0.900000E-01   1.00800           0
     16901 MEMB     147      SOPE     C2       CTL1     0.170000       12.0110           0
     16902 MEMB     147      SOPE     HS       HAL1     0.900000E-01   1.00800           0
     16903 MEMB     147      SOPE     O21      OSL     -0.490000       15.9994           0
     16904 MEMB     147      SOPE     C21      CL       0.900000       12.0110           0
     16905 MEMB     147      SOPE     O22      OBL     -0.630000       15.9994           0
     16906 MEMB     147      SOPE     C22      CTL2    -0.220000       12.0110           0
     16907 MEMB     147      SOPE     H2R      HAL2     0.900000E-01   1.00800           0
     16908 MEMB     147      SOPE     H2S      HAL2     0.900000E-01   1.00800           0
     16909 MEMB     147      SOPE     C3       CTL2     0.800000E-01   12.0110           0
     16910 MEMB     147      SOPE     HX       HAL2     0.900000E-01   1.00800           0
     16911 MEMB     147      SOPE     HY       HAL2     0.900000E-01   1.00800           0
     16912 MEMB     147      SOPE     O31      OSL     -0.490000       15.9994           0
     16913 MEMB     147      SOPE     C31      CL       0.900000       12.0110           0
     16914 MEMB     147      SOPE     O32      OBL     -0.630000       15.9994           0
     16915 MEMB     147      SOPE     C32      CTL2    -0.220000       12.0110           0
     16916 MEMB     147      SOPE     H2X      HAL2     0.900000E-01   1.00800           0
     16917 MEMB     147      SOPE     H2Y      HAL2     0.900000E-01   1.00800           0
     16918 MEMB     147      SOPE     C23      CTL2    -0.180000       12.0110           0
     16919 MEMB     147      SOPE     H3R      HAL2     0.900000E-01   1.00800           0
     16920 MEMB     147      SOPE     H3S      HAL2     0.900000E-01   1.00800           0
     16921 MEMB     147      SOPE     C24      CTL2    -0.180000       12.0110           0
     16922 MEMB     147      SOPE     H4R      HAL2     0.900000E-01   1.00800           0
     16923 MEMB     147      SOPE     H4S      HAL2     0.900000E-01   1.00800           0
     16924 MEMB     147      SOPE     C25      CTL2    -0.180000       12.0110           0
     16925 MEMB     147      SOPE     H5R      HAL2     0.900000E-01   1.00800           0
     16926 MEMB     147      SOPE     H5S      HAL2     0.900000E-01   1.00800           0
     16927 MEMB     147      SOPE     C26      CTL2    -0.180000       12.0110           0
     16928 MEMB     147      SOPE     H6R      HAL2     0.900000E-01   1.00800           0
     16929 MEMB     147      SOPE     H6S      HAL2     0.900000E-01   1.00800           0
     16930 MEMB     147      SOPE     C27      CTL2    -0.180000       12.0110           0
     16931 MEMB     147      SOPE     H7R      HAL2     0.900000E-01   1.00800           0
     16932 MEMB     147      SOPE     H7S      HAL2     0.900000E-01   1.00800           0
     16933 MEMB     147      SOPE     C28      CTL2    -0.180000       12.0110           0
     16934 MEMB     147      SOPE     H8R      HAL2     0.900000E-01   1.00800           0
     16935 MEMB     147      SOPE     H8S      HAL2     0.900000E-01   1.00800           0
     16936 MEMB     147      SOPE     C29      CEL1    -0.150000       12.0110           0
     16937 MEMB     147      SOPE     H91      HEL1     0.150000       1.00800           0
     16938 MEMB     147      SOPE     C210     CEL1    -0.150000       12.0110           0
     16939 MEMB     147      SOPE     H101     HEL1     0.150000       1.00800           0
     16940 MEMB     147      SOPE     C211     CTL2    -0.180000       12.0110           0
     16941 MEMB     147      SOPE     H11R     HAL2     0.900000E-01   1.00800           0
     16942 MEMB     147      SOPE     H11S     HAL2     0.900000E-01   1.00800           0
     16943 MEMB     147      SOPE     C212     CTL2    -0.180000       12.0110           0
     16944 MEMB     147      SOPE     H12R     HAL2     0.900000E-01   1.00800           0
     16945 MEMB     147      SOPE     H12S     HAL2     0.900000E-01   1.00800           0
     16946 MEMB     147      SOPE     C213     CTL2    -0.180000       12.0110           0
     16947 MEMB     147      SOPE     H13R     HAL2     0.900000E-01   1.00800           0
     16948 MEMB     147      SOPE     H13S     HAL2     0.900000E-01   1.00800           0
     16949 MEMB     147      SOPE     C214     CTL2    -0.180000       12.0110           0
     16950 MEMB     147      SOPE     H14R     HAL2     0.900000E-01   1.00800           0
     16951 MEMB     147      SOPE     H14S     HAL2     0.900000E-01   1.00800           0
     16952 MEMB     147      SOPE     C215     CTL2    -0.180000       12.0110           0
     16953 MEMB     147      SOPE     H15R     HAL2     0.900000E-01   1.00800           0
     16954 MEMB     147      SOPE     H15S     HAL2     0.900000E-01   1.00800           0
     16955 MEMB     147      SOPE     C216     CTL2    -0.180000       12.0110           0
     16956 MEMB     147      SOPE     H16R     HAL2     0.900000E-01   1.00800           0
     16957 MEMB     147      SOPE     H16S     HAL2     0.900000E-01   1.00800           0
     16958 MEMB     147      SOPE     C217     CTL2    -0.180000       12.0110           0
     16959 MEMB     147      SOPE     H17R     HAL2     0.900000E-01   1.00800           0
     16960 MEMB     147      SOPE     H17S     HAL2     0.900000E-01   1.00800           0
     16961 MEMB     147      SOPE     C218     CTL3    -0.270000       12.0110           0
     16962 MEMB     147      SOPE     H18R     HAL3     0.900000E-01   1.00800           0
     16963 MEMB     147      SOPE     H18S     HAL3     0.900000E-01   1.00800           0
     16964 MEMB     147      SOPE     H18T     HAL3     0.900000E-01   1.00800           0
     16965 MEMB     147      SOPE     C33      CTL2    -0.180000       12.0110           0
     16966 MEMB     147      SOPE     H3X      HAL2     0.900000E-01   1.00800           0
     16967 MEMB     147      SOPE     H3Y      HAL2     0.900000E-01   1.00800           0
     16968 MEMB     147      SOPE     C34      CTL2    -0.180000       12.0110           0
     16969 MEMB     147      SOPE     H4X      HAL2     0.900000E-01   1.00800           0
     16970 MEMB     147      SOPE     H4Y      HAL2     0.900000E-01   1.00800           0
     16971 MEMB     147      SOPE     C35      CTL2    -0.180000       12.0110           0
     16972 MEMB     147      SOPE     H5X      HAL2     0.900000E-01   1.00800           0
     16973 MEMB     147      SOPE     H5Y      HAL2     0.900000E-01   1.00800           0
     16974 MEMB     147      SOPE     C36      CTL2    -0.180000       12.0110           0
     16975 MEMB     147      SOPE     H6X      HAL2     0.900000E-01   1.00800           0
     16976 MEMB     147      SOPE     H6Y      HAL2     0.900000E-01   1.00800           0
     16977 MEMB     147      SOPE     C37      CTL2    -0.180000       12.0110           0
     16978 MEMB     147      SOPE     H7X      HAL2     0.900000E-01   1.00800           0
     16979 MEMB     147      SOPE     H7Y      HAL2     0.900000E-01   1.00800           0
     16980 MEMB     147      SOPE     C38      CTL2    -0.180000       12.0110           0
     16981 MEMB     147      SOPE     H8X      HAL2     0.900000E-01   1.00800           0
     16982 MEMB     147      SOPE     H8Y      HAL2     0.900000E-01   1.00800           0
     16983 MEMB     147      SOPE     C39      CTL2    -0.180000       12.0110           0
     16984 MEMB     147      SOPE     H9X      HAL2     0.900000E-01   1.00800           0
     16985 MEMB     147      SOPE     H9Y      HAL2     0.900000E-01   1.00800           0
     16986 MEMB     147      SOPE     C310     CTL2    -0.180000       12.0110           0
     16987 MEMB     147      SOPE     H10X     HAL2     0.900000E-01   1.00800           0
     16988 MEMB     147      SOPE     H10Y     HAL2     0.900000E-01   1.00800           0
     16989 MEMB     147      SOPE     C311     CTL2    -0.180000       12.0110           0
     16990 MEMB     147      SOPE     H11X     HAL2     0.900000E-01   1.00800           0
     16991 MEMB     147      SOPE     H11Y     HAL2     0.900000E-01   1.00800           0
     16992 MEMB     147      SOPE     C312     CTL2    -0.180000       12.0110           0
     16993 MEMB     147      SOPE     H12X     HAL2     0.900000E-01   1.00800           0
     16994 MEMB     147      SOPE     H12Y     HAL2     0.900000E-01   1.00800           0
     16995 MEMB     147      SOPE     C313     CTL2    -0.180000       12.0110           0
     16996 MEMB     147      SOPE     H13X     HAL2     0.900000E-01   1.00800           0
     16997 MEMB     147      SOPE     H13Y     HAL2     0.900000E-01   1.00800           0
     16998 MEMB     147      SOPE     C314     CTL2    -0.180000       12.0110           0
     16999 MEMB     147      SOPE     H14X     HAL2     0.900000E-01   1.00800           0
     17000 MEMB     147      SOPE     H14Y     HAL2     0.900000E-01   1.00800           0
     17001 MEMB     147      SOPE     C315     CTL2    -0.180000       12.0110           0
     17002 MEMB     147      SOPE     H15X     HAL2     0.900000E-01   1.00800           0
     17003 MEMB     147      SOPE     H15Y     HAL2     0.900000E-01   1.00800           0
     17004 MEMB     147      SOPE     C316     CTL2    -0.180000       12.0110           0
     17005 MEMB     147      SOPE     H16X     HAL2     0.900000E-01   1.00800           0
     17006 MEMB     147      SOPE     H16Y     HAL2     0.900000E-01   1.00800           0
     17007 MEMB     147      SOPE     C317     CTL2    -0.180000       12.0110           0
     17008 MEMB     147      SOPE     H17X     HAL2     0.900000E-01   1.00800           0
     17009 MEMB     147      SOPE     H17Y     HAL2     0.900000E-01   1.00800           0
     17010 MEMB     147      SOPE     C318     CTL3    -0.270000       12.0110           0
     17011 MEMB     147      SOPE     H18X     HAL3     0.900000E-01   1.00800           0
     17012 MEMB     147      SOPE     H18Y     HAL3     0.900000E-01   1.00800           0
     17013 MEMB     147      SOPE     H18Z     HAL3     0.900000E-01   1.00800           0
     17014 MEMB     148      SAPE     N        NH3L    -0.300000       14.0070           0
     17015 MEMB     148      SAPE     HN1      HCL      0.330000       1.00800           0
     17016 MEMB     148      SAPE     HN2      HCL      0.330000       1.00800           0
     17017 MEMB     148      SAPE     HN3      HCL      0.330000       1.00800           0
     17018 MEMB     148      SAPE     C12      CTL2     0.130000       12.0110           0
     17019 MEMB     148      SAPE     H12A     HAL2     0.900000E-01   1.00800           0
     17020 MEMB     148      SAPE     H12B     HAL2     0.900000E-01   1.00800           0
     17021 MEMB     148      SAPE     C11      CTL2    -0.800000E-01   12.0110           0
     17022 MEMB     148      SAPE     H11A     HAL2     0.900000E-01   1.00800           0
     17023 MEMB     148      SAPE     H11B     HAL2     0.900000E-01   1.00800           0
     17024 MEMB     148      SAPE     P        PL        1.50000       30.9740           0
     17025 MEMB     148      SAPE     O13      O2L     -0.780000       15.9994           0
     17026 MEMB     148      SAPE     O14      O2L     -0.780000       15.9994           0
     17027 MEMB     148      SAPE     O12      OSLP    -0.570000       15.9994           0
     17028 MEMB     148      SAPE     O11      OSLP    -0.570000       15.9994           0
     17029 MEMB     148      SAPE     C1       CTL2    -0.800000E-01   12.0110           0
     17030 MEMB     148      SAPE     HA       HAL2     0.900000E-01   1.00800           0
     17031 MEMB     148      SAPE     HB       HAL2     0.900000E-01   1.00800           0
     17032 MEMB     148      SAPE     C2       CTL1     0.170000       12.0110           0
     17033 MEMB     148      SAPE     HS       HAL1     0.900000E-01   1.00800           0
     17034 MEMB     148      SAPE     O21      OSL     -0.490000       15.9994           0
     17035 MEMB     148      SAPE     C21      CL       0.900000       12.0110           0
     17036 MEMB     148      SAPE     O22      OBL     -0.630000       15.9994           0
     17037 MEMB     148      SAPE     C22      CTL2    -0.220000       12.0110           0
     17038 MEMB     148      SAPE     H2R      HAL2     0.900000E-01   1.00800           0
     17039 MEMB     148      SAPE     H2S      HAL2     0.900000E-01   1.00800           0
     17040 MEMB     148      SAPE     C3       CTL2     0.800000E-01   12.0110           0
     17041 MEMB     148      SAPE     HX       HAL2     0.900000E-01   1.00800           0
     17042 MEMB     148      SAPE     HY       HAL2     0.900000E-01   1.00800           0
     17043 MEMB     148      SAPE     O31      OSL     -0.490000       15.9994           0
     17044 MEMB     148      SAPE     C31      CL       0.900000       12.0110           0
     17045 MEMB     148      SAPE     O32      OBL     -0.630000       15.9994           0
     17046 MEMB     148      SAPE     C32      CTL2    -0.220000       12.0110           0
     17047 MEMB     148      SAPE     H2X      HAL2     0.900000E-01   1.00800           0
     17048 MEMB     148      SAPE     H2Y      HAL2     0.900000E-01   1.00800           0
     17049 MEMB     148      SAPE     C23      CTL2    -0.180000       12.0110           0
     17050 MEMB     148      SAPE     H3R      HAL2     0.900000E-01   1.00800           0
     17051 MEMB     148      SAPE     H3S      HAL2     0.900000E-01   1.00800           0
     17052 MEMB     148      SAPE     C24      CTL2    -0.180000       12.0110           0
     17053 MEMB     148      SAPE     H4R      HAL2     0.900000E-01   1.00800           0
     17054 MEMB     148      SAPE     H4S      HAL2     0.900000E-01   1.00800           0
     17055 MEMB     148      SAPE     C25      CEL1    -0.150000       12.0110           0
     17056 MEMB     148      SAPE     H5R      HEL1     0.150000       1.00800           0
     17057 MEMB     148      SAPE     C26      CEL1    -0.150000       12.0110           0
     17058 MEMB     148      SAPE     H6R      HEL1     0.150000       1.00800           0
     17059 MEMB     148      SAPE     C27      CTL2    -0.180000       12.0110           0
     17060 MEMB     148      SAPE     H7R      HAL2     0.900000E-01   1.00800           0
     17061 MEMB     148      SAPE     H7S      HAL2     0.900000E-01   1.00800           0
     17062 MEMB     148      SAPE     C28      CEL1    -0.150000       12.0110           0
     17063 MEMB     148      SAPE     H8R      HEL1     0.150000       1.00800           0
     17064 MEMB     148      SAPE     C29      CEL1    -0.150000       12.0110           0
     17065 MEMB     148      SAPE     H9R      HEL1     0.150000       1.00800           0
     17066 MEMB     148      SAPE     C210     CTL2    -0.180000       12.0110           0
     17067 MEMB     148      SAPE     H10R     HAL2     0.900000E-01   1.00800           0
     17068 MEMB     148      SAPE     H10S     HAL2     0.900000E-01   1.00800           0
     17069 MEMB     148      SAPE     C211     CEL1    -0.150000       12.0110           0
     17070 MEMB     148      SAPE     H11R     HEL1     0.150000       1.00800           0
     17071 MEMB     148      SAPE     C212     CEL1    -0.150000       12.0110           0
     17072 MEMB     148      SAPE     H12R     HEL1     0.150000       1.00800           0
     17073 MEMB     148      SAPE     C213     CTL2    -0.180000       12.0110           0
     17074 MEMB     148      SAPE     H13R     HAL2     0.900000E-01   1.00800           0
     17075 MEMB     148      SAPE     H13S     HAL2     0.900000E-01   1.00800           0
     17076 MEMB     148      SAPE     C214     CEL1    -0.150000       12.0110           0
     17077 MEMB     148      SAPE     H14R     HEL1     0.150000       1.00800           0
     17078 MEMB     148      SAPE     C215     CEL1    -0.150000       12.0110           0
     17079 MEMB     148      SAPE     H15R     HEL1     0.150000       1.00800           0
     17080 MEMB     148      SAPE     C216     CTL2    -0.180000       12.0110           0
     17081 MEMB     148      SAPE     H16R     HAL2     0.900000E-01   1.00800           0
     17082 MEMB     148      SAPE     H16S     HAL2     0.900000E-01   1.00800           0
     17083 MEMB     148      SAPE     C217     CTL2    -0.180000       12.0110           0
     17084 MEMB     148      SAPE     H17R     HAL2     0.900000E-01   1.00800           0
     17085 MEMB     148      SAPE     H17S     HAL2     0.900000E-01   1.00800           0
     17086 MEMB     148      SAPE     C218     CTL2    -0.180000       12.0110           0
     17087 MEMB     148      SAPE     H18R     HAL2     0.900000E-01   1.00800           0
     17088 MEMB     148      SAPE     H18S     HAL2     0.900000E-01   1.00800           0
     17089 MEMB     148      SAPE     C219     CTL2    -0.180000       12.0110           0
     17090 MEMB     148      SAPE     H19R     HAL2     0.900000E-01   1.00800           0
     17091 MEMB     148      SAPE     H19S     HAL2     0.900000E-01   1.00800           0
     17092 MEMB     148      SAPE     C220     CTL3    -0.270000       12.0110           0
     17093 MEMB     148      SAPE     H20R     HAL3     0.900000E-01   1.00800           0
     17094 MEMB     148      SAPE     H20S     HAL3     0.900000E-01   1.00800           0
     17095 MEMB     148      SAPE     H20T     HAL3     0.900000E-01   1.00800           0
     17096 MEMB     148      SAPE     C33      CTL2    -0.180000       12.0110           0
     17097 MEMB     148      SAPE     H3X      HAL2     0.900000E-01   1.00800           0
     17098 MEMB     148      SAPE     H3Y      HAL2     0.900000E-01   1.00800           0
     17099 MEMB     148      SAPE     C34      CTL2    -0.180000       12.0110           0
     17100 MEMB     148      SAPE     H4X      HAL2     0.900000E-01   1.00800           0
     17101 MEMB     148      SAPE     H4Y      HAL2     0.900000E-01   1.00800           0
     17102 MEMB     148      SAPE     C35      CTL2    -0.180000       12.0110           0
     17103 MEMB     148      SAPE     H5X      HAL2     0.900000E-01   1.00800           0
     17104 MEMB     148      SAPE     H5Y      HAL2     0.900000E-01   1.00800           0
     17105 MEMB     148      SAPE     C36      CTL2    -0.180000       12.0110           0
     17106 MEMB     148      SAPE     H6X      HAL2     0.900000E-01   1.00800           0
     17107 MEMB     148      SAPE     H6Y      HAL2     0.900000E-01   1.00800           0
     17108 MEMB     148      SAPE     C37      CTL2    -0.180000       12.0110           0
     17109 MEMB     148      SAPE     H7X      HAL2     0.900000E-01   1.00800           0
     17110 MEMB     148      SAPE     H7Y      HAL2     0.900000E-01   1.00800           0
     17111 MEMB     148      SAPE     C38      CTL2    -0.180000       12.0110           0
     17112 MEMB     148      SAPE     H8X      HAL2     0.900000E-01   1.00800           0
     17113 MEMB     148      SAPE     H8Y      HAL2     0.900000E-01   1.00800           0
     17114 MEMB     148      SAPE     C39      CTL2    -0.180000       12.0110           0
     17115 MEMB     148      SAPE     H9X      HAL2     0.900000E-01   1.00800           0
     17116 MEMB     148      SAPE     H9Y      HAL2     0.900000E-01   1.00800           0
     17117 MEMB     148      SAPE     C310     CTL2    -0.180000       12.0110           0
     17118 MEMB     148      SAPE     H10X     HAL2     0.900000E-01   1.00800           0
     17119 MEMB     148      SAPE     H10Y     HAL2     0.900000E-01   1.00800           0
     17120 MEMB     148      SAPE     C311     CTL2    -0.180000       12.0110           0
     17121 MEMB     148      SAPE     H11X     HAL2     0.900000E-01   1.00800           0
     17122 MEMB     148      SAPE     H11Y     HAL2     0.900000E-01   1.00800           0
     17123 MEMB     148      SAPE     C312     CTL2    -0.180000       12.0110           0
     17124 MEMB     148      SAPE     H12X     HAL2     0.900000E-01   1.00800           0
     17125 MEMB     148      SAPE     H12Y     HAL2     0.900000E-01   1.00800           0
     17126 MEMB     148      SAPE     C313     CTL2    -0.180000       12.0110           0
     17127 MEMB     148      SAPE     H13X     HAL2     0.900000E-01   1.00800           0
     17128 MEMB     148      SAPE     H13Y     HAL2     0.900000E-01   1.00800           0
     17129 MEMB     148      SAPE     C314     CTL2    -0.180000       12.0110           0
     17130 MEMB     148      SAPE     H14X     HAL2     0.900000E-01   1.00800           0
     17131 MEMB     148      SAPE     H14Y     HAL2     0.900000E-01   1.00800           0
     17132 MEMB     148      SAPE     C315     CTL2    -0.180000       12.0110           0
     17133 MEMB     148      SAPE     H15X     HAL2     0.900000E-01   1.00800           0
     17134 MEMB     148      SAPE     H15Y     HAL2     0.900000E-01   1.00800           0
     17135 MEMB     148      SAPE     C316     CTL2    -0.180000       12.0110           0
     17136 MEMB     148      SAPE     H16X     HAL2     0.900000E-01   1.00800           0
     17137 MEMB     148      SAPE     H16Y     HAL2     0.900000E-01   1.00800           0
     17138 MEMB     148      SAPE     C317     CTL2    -0.180000       12.0110           0
     17139 MEMB     148      SAPE     H17X     HAL2     0.900000E-01   1.00800           0
     17140 MEMB     148      SAPE     H17Y     HAL2     0.900000E-01   1.00800           0
     17141 MEMB     148      SAPE     C318     CTL3    -0.270000       12.0110           0
     17142 MEMB     148      SAPE     H18X     HAL3     0.900000E-01   1.00800           0
     17143 MEMB     148      SAPE     H18Y     HAL3     0.900000E-01   1.00800           0
     17144 MEMB     148      SAPE     H18Z     HAL3     0.900000E-01   1.00800           0
     17145 MEMB     149      CHL1     C3       CRL1     0.140000       12.0110           0
     17146 MEMB     149      CHL1     H3       HGA1     0.900000E-01   1.00800           0
     17147 MEMB     149      CHL1     O3       OHL     -0.660000       15.9994           0
     17148 MEMB     149      CHL1     H3'      HOL      0.430000       1.00800           0
     17149 MEMB     149      CHL1     C4       CRL2    -0.180000       12.0110           0
     17150 MEMB     149      CHL1     H4A      HGA2     0.900000E-01   1.00800           0
     17151 MEMB     149      CHL1     H4B      HGA2     0.900000E-01   1.00800           0
     17152 MEMB     149      CHL1     C5       CEL1      0.00000       12.0110           0
     17153 MEMB     149      CHL1     C6       CEL1    -0.150000       12.0110           0
     17154 MEMB     149      CHL1     H6       HEL1     0.150000       1.00800           0
     17155 MEMB     149      CHL1     C7       CRL2    -0.180000       12.0110           0
     17156 MEMB     149      CHL1     H7A      HGA2     0.900000E-01   1.00800           0
     17157 MEMB     149      CHL1     H7B      HGA2     0.900000E-01   1.00800           0
     17158 MEMB     149      CHL1     C8       CRL1    -0.900000E-01   12.0110           0
     17159 MEMB     149      CHL1     H8       HGA1     0.900000E-01   1.00800           0
     17160 MEMB     149      CHL1     C14      CRL1    -0.900000E-01   12.0110           0
     17161 MEMB     149      CHL1     H14      HGA1     0.900000E-01   1.00800           0
     17162 MEMB     149      CHL1     C15      CRL2    -0.180000       12.0110           0
     17163 MEMB     149      CHL1     H15A     HGA2     0.900000E-01   1.00800           0
     17164 MEMB     149      CHL1     H15B     HGA2     0.900000E-01   1.00800           0
     17165 MEMB     149      CHL1     C16      CRL2    -0.180000       12.0110           0
     17166 MEMB     149      CHL1     H16A     HGA2     0.900000E-01   1.00800           0
     17167 MEMB     149      CHL1     H16B     HGA2     0.900000E-01   1.00800           0
     17168 MEMB     149      CHL1     C17      CRL1    -0.900000E-01   12.0110           0
     17169 MEMB     149      CHL1     H17      HGA1     0.900000E-01   1.00800           0
     17170 MEMB     149      CHL1     C13      CRL1      0.00000       12.0110           0
     17171 MEMB     149      CHL1     C18      CTL3    -0.270000       12.0110           0
     17172 MEMB     149      CHL1     H18A     HAL3     0.900000E-01   1.00800           0
     17173 MEMB     149      CHL1     H18B     HAL3     0.900000E-01   1.00800           0
     17174 MEMB     149      CHL1     H18C     HAL3     0.900000E-01   1.00800           0
     17175 MEMB     149      CHL1     C12      CRL2    -0.180000       12.0110           0
     17176 MEMB     149      CHL1     H12A     HGA2     0.900000E-01   1.00800           0
     17177 MEMB     149      CHL1     H12B     HGA2     0.900000E-01   1.00800           0
     17178 MEMB     149      CHL1     C11      CRL2    -0.180000       12.0110           0
     17179 MEMB     149      CHL1     H11A     HGA2     0.900000E-01   1.00800           0
     17180 MEMB     149      CHL1     H11B     HGA2     0.900000E-01   1.00800           0
     17181 MEMB     149      CHL1     C9       CRL1    -0.900000E-01   12.0110           0
     17182 MEMB     149      CHL1     H9       HGA1     0.900000E-01   1.00800           0
     17183 MEMB     149      CHL1     C10      CRL1      0.00000       12.0110           0
     17184 MEMB     149      CHL1     C19      CTL3    -0.270000       12.0110           0
     17185 MEMB     149      CHL1     H19A     HAL3     0.900000E-01   1.00800           0
     17186 MEMB     149      CHL1     H19B     HAL3     0.900000E-01   1.00800           0
     17187 MEMB     149      CHL1     H19C     HAL3     0.900000E-01   1.00800           0
     17188 MEMB     149      CHL1     C1       CRL2    -0.180000       12.0110           0
     17189 MEMB     149      CHL1     H1A      HGA2     0.900000E-01   1.00800           0
     17190 MEMB     149      CHL1     H1B      HGA2     0.900000E-01   1.00800           0
     17191 MEMB     149      CHL1     C2       CRL2    -0.180000       12.0110           0
     17192 MEMB     149      CHL1     H2A      HGA2     0.900000E-01   1.00800           0
     17193 MEMB     149      CHL1     H2B      HGA2     0.900000E-01   1.00800           0
     17194 MEMB     149      CHL1     C20      CTL1    -0.900000E-01   12.0110           0
     17195 MEMB     149      CHL1     H20      HAL1     0.900000E-01   1.00800           0
     17196 MEMB     149      CHL1     C21      CTL3    -0.270000       12.0110           0
     17197 MEMB     149      CHL1     H21A     HAL3     0.900000E-01   1.00800           0
     17198 MEMB     149      CHL1     H21B     HAL3     0.900000E-01   1.00800           0
     17199 MEMB     149      CHL1     H21C     HAL3     0.900000E-01   1.00800           0
     17200 MEMB     149      CHL1     C22      CTL2    -0.180000       12.0110           0
     17201 MEMB     149      CHL1     H22A     HAL2     0.900000E-01   1.00800           0
     17202 MEMB     149      CHL1     H22B     HAL2     0.900000E-01   1.00800           0
     17203 MEMB     149      CHL1     C23      CTL2    -0.180000       12.0110           0
     17204 MEMB     149      CHL1     H23A     HAL2     0.900000E-01   1.00800           0
     17205 MEMB     149      CHL1     H23B     HAL2     0.900000E-01   1.00800           0
     17206 MEMB     149      CHL1     C24      CTL2    -0.180000       12.0110           0
     17207 MEMB     149      CHL1     H24A     HAL2     0.900000E-01   1.00800           0
     17208 MEMB     149      CHL1     H24B     HAL2     0.900000E-01   1.00800           0
     17209 MEMB     149      CHL1     C25      CTL1    -0.900000E-01   12.0110           0
     17210 MEMB     149      CHL1     H25      HAL1     0.900000E-01   1.00800           0
     17211 MEMB     149      CHL1     C26      CTL3    -0.270000       12.0110           0
     17212 MEMB     149      CHL1     H26A     HAL3     0.900000E-01   1.00800           0
     17213 MEMB     149      CHL1     H26B     HAL3     0.900000E-01   1.00800           0
     17214 MEMB     149      CHL1     H26C     HAL3     0.900000E-01   1.00800           0
     17215 MEMB     149      CHL1     C27      CTL3    -0.270000       12.0110           0
     17216 MEMB     149      CHL1     H27A     HAL3     0.900000E-01   1.00800           0
     17217 MEMB     149      CHL1     H27B     HAL3     0.900000E-01   1.00800           0
     17218 MEMB     149      CHL1     H27C     HAL3     0.900000E-01   1.00800           0
     17219 MEMB     150      SAPC     N        NTL     -0.600000       14.0070           0
     17220 MEMB     150      SAPC     C12      CTL2    -0.100000       12.0110           0
     17221 MEMB     150      SAPC     H12A     HL       0.250000       1.00800           0
     17222 MEMB     150      SAPC     H12B     HL       0.250000       1.00800           0
     17223 MEMB     150      SAPC     C13      CTL5    -0.350000       12.0110           0
     17224 MEMB     150      SAPC     H13A     HL       0.250000       1.00800           0
     17225 MEMB     150      SAPC     H13B     HL       0.250000       1.00800           0
     17226 MEMB     150      SAPC     H13C     HL       0.250000       1.00800           0
     17227 MEMB     150      SAPC     C14      CTL5    -0.350000       12.0110           0
     17228 MEMB     150      SAPC     H14A     HL       0.250000       1.00800           0
     17229 MEMB     150      SAPC     H14B     HL       0.250000       1.00800           0
     17230 MEMB     150      SAPC     H14C     HL       0.250000       1.00800           0
     17231 MEMB     150      SAPC     C15      CTL5    -0.350000       12.0110           0
     17232 MEMB     150      SAPC     H15A     HL       0.250000       1.00800           0
     17233 MEMB     150      SAPC     H15B     HL       0.250000       1.00800           0
     17234 MEMB     150      SAPC     H15C     HL       0.250000       1.00800           0
     17235 MEMB     150      SAPC     C11      CTL2    -0.800000E-01   12.0110           0
     17236 MEMB     150      SAPC     H11A     HAL2     0.900000E-01   1.00800           0
     17237 MEMB     150      SAPC     H11B     HAL2     0.900000E-01   1.00800           0
     17238 MEMB     150      SAPC     P        PL        1.50000       30.9740           0
     17239 MEMB     150      SAPC     O13      O2L     -0.780000       15.9994           0
     17240 MEMB     150      SAPC     O14      O2L     -0.780000       15.9994           0
     17241 MEMB     150      SAPC     O12      OSLP    -0.570000       15.9994           0
     17242 MEMB     150      SAPC     O11      OSLP    -0.570000       15.9994           0
     17243 MEMB     150      SAPC     C1       CTL2    -0.800000E-01   12.0110           0
     17244 MEMB     150      SAPC     HA       HAL2     0.900000E-01   1.00800           0
     17245 MEMB     150      SAPC     HB       HAL2     0.900000E-01   1.00800           0
     17246 MEMB     150      SAPC     C2       CTL1     0.170000       12.0110           0
     17247 MEMB     150      SAPC     HS       HAL1     0.900000E-01   1.00800           0
     17248 MEMB     150      SAPC     O21      OSL     -0.490000       15.9994           0
     17249 MEMB     150      SAPC     C21      CL       0.900000       12.0110           0
     17250 MEMB     150      SAPC     O22      OBL     -0.630000       15.9994           0
     17251 MEMB     150      SAPC     C22      CTL2    -0.220000       12.0110           0
     17252 MEMB     150      SAPC     H2R      HAL2     0.900000E-01   1.00800           0
     17253 MEMB     150      SAPC     H2S      HAL2     0.900000E-01   1.00800           0
     17254 MEMB     150      SAPC     C3       CTL2     0.800000E-01   12.0110           0
     17255 MEMB     150      SAPC     HX       HAL2     0.900000E-01   1.00800           0
     17256 MEMB     150      SAPC     HY       HAL2     0.900000E-01   1.00800           0
     17257 MEMB     150      SAPC     O31      OSL     -0.490000       15.9994           0
     17258 MEMB     150      SAPC     C31      CL       0.900000       12.0110           0
     17259 MEMB     150      SAPC     O32      OBL     -0.630000       15.9994           0
     17260 MEMB     150      SAPC     C32      CTL2    -0.220000       12.0110           0
     17261 MEMB     150      SAPC     H2X      HAL2     0.900000E-01   1.00800           0
     17262 MEMB     150      SAPC     H2Y      HAL2     0.900000E-01   1.00800           0
     17263 MEMB     150      SAPC     C23      CTL2    -0.180000       12.0110           0
     17264 MEMB     150      SAPC     H3R      HAL2     0.900000E-01   1.00800           0
     17265 MEMB     150      SAPC     H3S      HAL2     0.900000E-01   1.00800           0
     17266 MEMB     150      SAPC     C24      CTL2    -0.180000       12.0110           0
     17267 MEMB     150      SAPC     H4R      HAL2     0.900000E-01   1.00800           0
     17268 MEMB     150      SAPC     H4S      HAL2     0.900000E-01   1.00800           0
     17269 MEMB     150      SAPC     C25      CEL1    -0.150000       12.0110           0
     17270 MEMB     150      SAPC     H5R      HEL1     0.150000       1.00800           0
     17271 MEMB     150      SAPC     C26      CEL1    -0.150000       12.0110           0
     17272 MEMB     150      SAPC     H6R      HEL1     0.150000       1.00800           0
     17273 MEMB     150      SAPC     C27      CTL2    -0.180000       12.0110           0
     17274 MEMB     150      SAPC     H7R      HAL2     0.900000E-01   1.00800           0
     17275 MEMB     150      SAPC     H7S      HAL2     0.900000E-01   1.00800           0
     17276 MEMB     150      SAPC     C28      CEL1    -0.150000       12.0110           0
     17277 MEMB     150      SAPC     H8R      HEL1     0.150000       1.00800           0
     17278 MEMB     150      SAPC     C29      CEL1    -0.150000       12.0110           0
     17279 MEMB     150      SAPC     H9R      HEL1     0.150000       1.00800           0
     17280 MEMB     150      SAPC     C210     CTL2    -0.180000       12.0110           0
     17281 MEMB     150      SAPC     H10R     HAL2     0.900000E-01   1.00800           0
     17282 MEMB     150      SAPC     H10S     HAL2     0.900000E-01   1.00800           0
     17283 MEMB     150      SAPC     C211     CEL1    -0.150000       12.0110           0
     17284 MEMB     150      SAPC     H11R     HEL1     0.150000       1.00800           0
     17285 MEMB     150      SAPC     C212     CEL1    -0.150000       12.0110           0
     17286 MEMB     150      SAPC     H12R     HEL1     0.150000       1.00800           0
     17287 MEMB     150      SAPC     C213     CTL2    -0.180000       12.0110           0
     17288 MEMB     150      SAPC     H13R     HAL2     0.900000E-01   1.00800           0
     17289 MEMB     150      SAPC     H13S     HAL2     0.900000E-01   1.00800           0
     17290 MEMB     150      SAPC     C214     CEL1    -0.150000       12.0110           0
     17291 MEMB     150      SAPC     H14R     HEL1     0.150000       1.00800           0
     17292 MEMB     150      SAPC     C215     CEL1    -0.150000       12.0110           0
     17293 MEMB     150      SAPC     H15R     HEL1     0.150000       1.00800           0
     17294 MEMB     150      SAPC     C216     CTL2    -0.180000       12.0110           0
     17295 MEMB     150      SAPC     H16R     HAL2     0.900000E-01   1.00800           0
     17296 MEMB     150      SAPC     H16S     HAL2     0.900000E-01   1.00800           0
     17297 MEMB     150      SAPC     C217     CTL2    -0.180000       12.0110           0
     17298 MEMB     150      SAPC     H17R     HAL2     0.900000E-01   1.00800           0
     17299 MEMB     150      SAPC     H17S     HAL2     0.900000E-01   1.00800           0
     17300 MEMB     150      SAPC     C218     CTL2    -0.270000       12.0110           0
     17301 MEMB     150      SAPC     H18R     HAL2     0.900000E-01   1.00800           0
     17302 MEMB     150      SAPC     H18S     HAL2     0.900000E-01   1.00800           0
     17303 MEMB     150      SAPC     C219     CTL2    -0.180000       12.0110           0
     17304 MEMB     150      SAPC     H19R     HAL2     0.900000E-01   1.00800           0
     17305 MEMB     150      SAPC     H19S     HAL2     0.900000E-01   1.00800           0
     17306 MEMB     150      SAPC     C220     CTL3    -0.180000       12.0110           0
     17307 MEMB     150      SAPC     H20R     HAL3     0.900000E-01   1.00800           0
     17308 MEMB     150      SAPC     H20S     HAL3     0.900000E-01   1.00800           0
     17309 MEMB     150      SAPC     H20T     HAL3     0.900000E-01   1.00800           0
     17310 MEMB     150      SAPC     C33      CTL2    -0.180000       12.0110           0
     17311 MEMB     150      SAPC     H3X      HAL2     0.900000E-01   1.00800           0
     17312 MEMB     150      SAPC     H3Y      HAL2     0.900000E-01   1.00800           0
     17313 MEMB     150      SAPC     C34      CTL2    -0.180000       12.0110           0
     17314 MEMB     150      SAPC     H4X      HAL2     0.900000E-01   1.00800           0
     17315 MEMB     150      SAPC     H4Y      HAL2     0.900000E-01   1.00800           0
     17316 MEMB     150      SAPC     C35      CTL2    -0.180000       12.0110           0
     17317 MEMB     150      SAPC     H5X      HAL2     0.900000E-01   1.00800           0
     17318 MEMB     150      SAPC     H5Y      HAL2     0.900000E-01   1.00800           0
     17319 MEMB     150      SAPC     C36      CTL2    -0.180000       12.0110           0
     17320 MEMB     150      SAPC     H6X      HAL2     0.900000E-01   1.00800           0
     17321 MEMB     150      SAPC     H6Y      HAL2     0.900000E-01   1.00800           0
     17322 MEMB     150      SAPC     C37      CTL2    -0.180000       12.0110           0
     17323 MEMB     150      SAPC     H7X      HAL2     0.900000E-01   1.00800           0
     17324 MEMB     150      SAPC     H7Y      HAL2     0.900000E-01   1.00800           0
     17325 MEMB     150      SAPC     C38      CTL2    -0.180000       12.0110           0
     17326 MEMB     150      SAPC     H8X      HAL2     0.900000E-01   1.00800           0
     17327 MEMB     150      SAPC     H8Y      HAL2     0.900000E-01   1.00800           0
     17328 MEMB     150      SAPC     C39      CTL2    -0.180000       12.0110           0
     17329 MEMB     150      SAPC     H9X      HAL2     0.900000E-01   1.00800           0
     17330 MEMB     150      SAPC     H9Y      HAL2     0.900000E-01   1.00800           0
     17331 MEMB     150      SAPC     C310     CTL2    -0.180000       12.0110           0
     17332 MEMB     150      SAPC     H10X     HAL2     0.900000E-01   1.00800           0
     17333 MEMB     150      SAPC     H10Y     HAL2     0.900000E-01   1.00800           0
     17334 MEMB     150      SAPC     C311     CTL2    -0.180000       12.0110           0
     17335 MEMB     150      SAPC     H11X     HAL2     0.900000E-01   1.00800           0
     17336 MEMB     150      SAPC     H11Y     HAL2     0.900000E-01   1.00800           0
     17337 MEMB     150      SAPC     C312     CTL2    -0.180000       12.0110           0
     17338 MEMB     150      SAPC     H12X     HAL2     0.900000E-01   1.00800           0
     17339 MEMB     150      SAPC     H12Y     HAL2     0.900000E-01   1.00800           0
     17340 MEMB     150      SAPC     C313     CTL2    -0.180000       12.0110           0
     17341 MEMB     150      SAPC     H13X     HAL2     0.900000E-01   1.00800           0
     17342 MEMB     150      SAPC     H13Y     HAL2     0.900000E-01   1.00800           0
     17343 MEMB     150      SAPC     C314     CTL2    -0.180000       12.0110           0
     17344 MEMB     150      SAPC     H14X     HAL2     0.900000E-01   1.00800           0
     17345 MEMB     150      SAPC     H14Y     HAL2     0.900000E-01   1.00800           0
     17346 MEMB     150      SAPC     C315     CTL2    -0.180000       12.0110           0
     17347 MEMB     150      SAPC     H15X     HAL2     0.900000E-01   1.00800           0
     17348 MEMB     150      SAPC     H15Y     HAL2     0.900000E-01   1.00800           0
     17349 MEMB     150      SAPC     C316     CTL2    -0.180000       12.0110           0
     17350 MEMB     150      SAPC     H16X     HAL2     0.900000E-01   1.00800           0
     17351 MEMB     150      SAPC     H16Y     HAL2     0.900000E-01   1.00800           0
     17352 MEMB     150      SAPC     C317     CTL2    -0.180000       12.0110           0
     17353 MEMB     150      SAPC     H17X     HAL2     0.900000E-01   1.00800           0
     17354 MEMB     150      SAPC     H17Y     HAL2     0.900000E-01   1.00800           0
     17355 MEMB     150      SAPC     C318     CTL3    -0.270000       12.0110           0
     17356 MEMB     150      SAPC     H18X     HAL3     0.900000E-01   1.00800           0
     17357 MEMB     150      SAPC     H18Y     HAL3     0.900000E-01   1.00800           0
     17358 MEMB     150      SAPC     H18Z     HAL3     0.900000E-01   1.00800           0
     17359 MEMB     151      CHL1     C3       CRL1     0.140000       12.0110           0
     17360 MEMB     151      CHL1     H3       HGA1     0.900000E-01   1.00800           0
     17361 MEMB     151      CHL1     O3       OHL     -0.660000       15.9994           0
     17362 MEMB     151      CHL1     H3'      HOL      0.430000       1.00800           0
     17363 MEMB     151      CHL1     C4       CRL2    -0.180000       12.0110           0
     17364 MEMB     151      CHL1     H4A      HGA2     0.900000E-01   1.00800           0
     17365 MEMB     151      CHL1     H4B      HGA2     0.900000E-01   1.00800           0
     17366 MEMB     151      CHL1     C5       CEL1      0.00000       12.0110           0
     17367 MEMB     151      CHL1     C6       CEL1    -0.150000       12.0110           0
     17368 MEMB     151      CHL1     H6       HEL1     0.150000       1.00800           0
     17369 MEMB     151      CHL1     C7       CRL2    -0.180000       12.0110           0
     17370 MEMB     151      CHL1     H7A      HGA2     0.900000E-01   1.00800           0
     17371 MEMB     151      CHL1     H7B      HGA2     0.900000E-01   1.00800           0
     17372 MEMB     151      CHL1     C8       CRL1    -0.900000E-01   12.0110           0
     17373 MEMB     151      CHL1     H8       HGA1     0.900000E-01   1.00800           0
     17374 MEMB     151      CHL1     C14      CRL1    -0.900000E-01   12.0110           0
     17375 MEMB     151      CHL1     H14      HGA1     0.900000E-01   1.00800           0
     17376 MEMB     151      CHL1     C15      CRL2    -0.180000       12.0110           0
     17377 MEMB     151      CHL1     H15A     HGA2     0.900000E-01   1.00800           0
     17378 MEMB     151      CHL1     H15B     HGA2     0.900000E-01   1.00800           0
     17379 MEMB     151      CHL1     C16      CRL2    -0.180000       12.0110           0
     17380 MEMB     151      CHL1     H16A     HGA2     0.900000E-01   1.00800           0
     17381 MEMB     151      CHL1     H16B     HGA2     0.900000E-01   1.00800           0
     17382 MEMB     151      CHL1     C17      CRL1    -0.900000E-01   12.0110           0
     17383 MEMB     151      CHL1     H17      HGA1     0.900000E-01   1.00800           0
     17384 MEMB     151      CHL1     C13      CRL1      0.00000       12.0110           0
     17385 MEMB     151      CHL1     C18      CTL3    -0.270000       12.0110           0
     17386 MEMB     151      CHL1     H18A     HAL3     0.900000E-01   1.00800           0
     17387 MEMB     151      CHL1     H18B     HAL3     0.900000E-01   1.00800           0
     17388 MEMB     151      CHL1     H18C     HAL3     0.900000E-01   1.00800           0
     17389 MEMB     151      CHL1     C12      CRL2    -0.180000       12.0110           0
     17390 MEMB     151      CHL1     H12A     HGA2     0.900000E-01   1.00800           0
     17391 MEMB     151      CHL1     H12B     HGA2     0.900000E-01   1.00800           0
     17392 MEMB     151      CHL1     C11      CRL2    -0.180000       12.0110           0
     17393 MEMB     151      CHL1     H11A     HGA2     0.900000E-01   1.00800           0
     17394 MEMB     151      CHL1     H11B     HGA2     0.900000E-01   1.00800           0
     17395 MEMB     151      CHL1     C9       CRL1    -0.900000E-01   12.0110           0
     17396 MEMB     151      CHL1     H9       HGA1     0.900000E-01   1.00800           0
     17397 MEMB     151      CHL1     C10      CRL1      0.00000       12.0110           0
     17398 MEMB     151      CHL1     C19      CTL3    -0.270000       12.0110           0
     17399 MEMB     151      CHL1     H19A     HAL3     0.900000E-01   1.00800           0
     17400 MEMB     151      CHL1     H19B     HAL3     0.900000E-01   1.00800           0
     17401 MEMB     151      CHL1     H19C     HAL3     0.900000E-01   1.00800           0
     17402 MEMB     151      CHL1     C1       CRL2    -0.180000       12.0110           0
     17403 MEMB     151      CHL1     H1A      HGA2     0.900000E-01   1.00800           0
     17404 MEMB     151      CHL1     H1B      HGA2     0.900000E-01   1.00800           0
     17405 MEMB     151      CHL1     C2       CRL2    -0.180000       12.0110           0
     17406 MEMB     151      CHL1     H2A      HGA2     0.900000E-01   1.00800           0
     17407 MEMB     151      CHL1     H2B      HGA2     0.900000E-01   1.00800           0
     17408 MEMB     151      CHL1     C20      CTL1    -0.900000E-01   12.0110           0
     17409 MEMB     151      CHL1     H20      HAL1     0.900000E-01   1.00800           0
     17410 MEMB     151      CHL1     C21      CTL3    -0.270000       12.0110           0
     17411 MEMB     151      CHL1     H21A     HAL3     0.900000E-01   1.00800           0
     17412 MEMB     151      CHL1     H21B     HAL3     0.900000E-01   1.00800           0
     17413 MEMB     151      CHL1     H21C     HAL3     0.900000E-01   1.00800           0
     17414 MEMB     151      CHL1     C22      CTL2    -0.180000       12.0110           0
     17415 MEMB     151      CHL1     H22A     HAL2     0.900000E-01   1.00800           0
     17416 MEMB     151      CHL1     H22B     HAL2     0.900000E-01   1.00800           0
     17417 MEMB     151      CHL1     C23      CTL2    -0.180000       12.0110           0
     17418 MEMB     151      CHL1     H23A     HAL2     0.900000E-01   1.00800           0
     17419 MEMB     151      CHL1     H23B     HAL2     0.900000E-01   1.00800           0
     17420 MEMB     151      CHL1     C24      CTL2    -0.180000       12.0110           0
     17421 MEMB     151      CHL1     H24A     HAL2     0.900000E-01   1.00800           0
     17422 MEMB     151      CHL1     H24B     HAL2     0.900000E-01   1.00800           0
     17423 MEMB     151      CHL1     C25      CTL1    -0.900000E-01   12.0110           0
     17424 MEMB     151      CHL1     H25      HAL1     0.900000E-01   1.00800           0
     17425 MEMB     151      CHL1     C26      CTL3    -0.270000       12.0110           0
     17426 MEMB     151      CHL1     H26A     HAL3     0.900000E-01   1.00800           0
     17427 MEMB     151      CHL1     H26B     HAL3     0.900000E-01   1.00800           0
     17428 MEMB     151      CHL1     H26C     HAL3     0.900000E-01   1.00800           0
     17429 MEMB     151      CHL1     C27      CTL3    -0.270000       12.0110           0
     17430 MEMB     151      CHL1     H27A     HAL3     0.900000E-01   1.00800           0
     17431 MEMB     151      CHL1     H27B     HAL3     0.900000E-01   1.00800           0
     17432 MEMB     151      CHL1     H27C     HAL3     0.900000E-01   1.00800           0
     17433 MEMB     152      CHL1     C3       CRL1     0.140000       12.0110           0
     17434 MEMB     152      CHL1     H3       HGA1     0.900000E-01   1.00800           0
     17435 MEMB     152      CHL1     O3       OHL     -0.660000       15.9994           0
     17436 MEMB     152      CHL1     H3'      HOL      0.430000       1.00800           0
     17437 MEMB     152      CHL1     C4       CRL2    -0.180000       12.0110           0
     17438 MEMB     152      CHL1     H4A      HGA2     0.900000E-01   1.00800           0
     17439 MEMB     152      CHL1     H4B      HGA2     0.900000E-01   1.00800           0
     17440 MEMB     152      CHL1     C5       CEL1      0.00000       12.0110           0
     17441 MEMB     152      CHL1     C6       CEL1    -0.150000       12.0110           0
     17442 MEMB     152      CHL1     H6       HEL1     0.150000       1.00800           0
     17443 MEMB     152      CHL1     C7       CRL2    -0.180000       12.0110           0
     17444 MEMB     152      CHL1     H7A      HGA2     0.900000E-01   1.00800           0
     17445 MEMB     152      CHL1     H7B      HGA2     0.900000E-01   1.00800           0
     17446 MEMB     152      CHL1     C8       CRL1    -0.900000E-01   12.0110           0
     17447 MEMB     152      CHL1     H8       HGA1     0.900000E-01   1.00800           0
     17448 MEMB     152      CHL1     C14      CRL1    -0.900000E-01   12.0110           0
     17449 MEMB     152      CHL1     H14      HGA1     0.900000E-01   1.00800           0
     17450 MEMB     152      CHL1     C15      CRL2    -0.180000       12.0110           0
     17451 MEMB     152      CHL1     H15A     HGA2     0.900000E-01   1.00800           0
     17452 MEMB     152      CHL1     H15B     HGA2     0.900000E-01   1.00800           0
     17453 MEMB     152      CHL1     C16      CRL2    -0.180000       12.0110           0
     17454 MEMB     152      CHL1     H16A     HGA2     0.900000E-01   1.00800           0
     17455 MEMB     152      CHL1     H16B     HGA2     0.900000E-01   1.00800           0
     17456 MEMB     152      CHL1     C17      CRL1    -0.900000E-01   12.0110           0
     17457 MEMB     152      CHL1     H17      HGA1     0.900000E-01   1.00800           0
     17458 MEMB     152      CHL1     C13      CRL1      0.00000       12.0110           0
     17459 MEMB     152      CHL1     C18      CTL3    -0.270000       12.0110           0
     17460 MEMB     152      CHL1     H18A     HAL3     0.900000E-01   1.00800           0
     17461 MEMB     152      CHL1     H18B     HAL3     0.900000E-01   1.00800           0
     17462 MEMB     152      CHL1     H18C     HAL3     0.900000E-01   1.00800           0
     17463 MEMB     152      CHL1     C12      CRL2    -0.180000       12.0110           0
     17464 MEMB     152      CHL1     H12A     HGA2     0.900000E-01   1.00800           0
     17465 MEMB     152      CHL1     H12B     HGA2     0.900000E-01   1.00800           0
     17466 MEMB     152      CHL1     C11      CRL2    -0.180000       12.0110           0
     17467 MEMB     152      CHL1     H11A     HGA2     0.900000E-01   1.00800           0
     17468 MEMB     152      CHL1     H11B     HGA2     0.900000E-01   1.00800           0
     17469 MEMB     152      CHL1     C9       CRL1    -0.900000E-01   12.0110           0
     17470 MEMB     152      CHL1     H9       HGA1     0.900000E-01   1.00800           0
     17471 MEMB     152      CHL1     C10      CRL1      0.00000       12.0110           0
     17472 MEMB     152      CHL1     C19      CTL3    -0.270000       12.0110           0
     17473 MEMB     152      CHL1     H19A     HAL3     0.900000E-01   1.00800           0
     17474 MEMB     152      CHL1     H19B     HAL3     0.900000E-01   1.00800           0
     17475 MEMB     152      CHL1     H19C     HAL3     0.900000E-01   1.00800           0
     17476 MEMB     152      CHL1     C1       CRL2    -0.180000       12.0110           0
     17477 MEMB     152      CHL1     H1A      HGA2     0.900000E-01   1.00800           0
     17478 MEMB     152      CHL1     H1B      HGA2     0.900000E-01   1.00800           0
     17479 MEMB     152      CHL1     C2       CRL2    -0.180000       12.0110           0
     17480 MEMB     152      CHL1     H2A      HGA2     0.900000E-01   1.00800           0
     17481 MEMB     152      CHL1     H2B      HGA2     0.900000E-01   1.00800           0
     17482 MEMB     152      CHL1     C20      CTL1    -0.900000E-01   12.0110           0
     17483 MEMB     152      CHL1     H20      HAL1     0.900000E-01   1.00800           0
     17484 MEMB     152      CHL1     C21      CTL3    -0.270000       12.0110           0
     17485 MEMB     152      CHL1     H21A     HAL3     0.900000E-01   1.00800           0
     17486 MEMB     152      CHL1     H21B     HAL3     0.900000E-01   1.00800           0
     17487 MEMB     152      CHL1     H21C     HAL3     0.900000E-01   1.00800           0
     17488 MEMB     152      CHL1     C22      CTL2    -0.180000       12.0110           0
     17489 MEMB     152      CHL1     H22A     HAL2     0.900000E-01   1.00800           0
     17490 MEMB     152      CHL1     H22B     HAL2     0.900000E-01   1.00800           0
     17491 MEMB     152      CHL1     C23      CTL2    -0.180000       12.0110           0
     17492 MEMB     152      CHL1     H23A     HAL2     0.900000E-01   1.00800           0
     17493 MEMB     152      CHL1     H23B     HAL2     0.900000E-01   1.00800           0
     17494 MEMB     152      CHL1     C24      CTL2    -0.180000       12.0110           0
     17495 MEMB     152      CHL1     H24A     HAL2     0.900000E-01   1.00800           0
     17496 MEMB     152      CHL1     H24B     HAL2     0.900000E-01   1.00800           0
     17497 MEMB     152      CHL1     C25      CTL1    -0.900000E-01   12.0110           0
     17498 MEMB     152      CHL1     H25      HAL1     0.900000E-01   1.00800           0
     17499 MEMB     152      CHL1     C26      CTL3    -0.270000       12.0110           0
     17500 MEMB     152      CHL1     H26A     HAL3     0.900000E-01   1.00800           0
     17501 MEMB     152      CHL1     H26B     HAL3     0.900000E-01   1.00800           0
     17502 MEMB     152      CHL1     H26C     HAL3     0.900000E-01   1.00800           0
     17503 MEMB     152      CHL1     C27      CTL3    -0.270000       12.0110           0
     17504 MEMB     152      CHL1     H27A     HAL3     0.900000E-01   1.00800           0
     17505 MEMB     152      CHL1     H27B     HAL3     0.900000E-01   1.00800           0
     17506 MEMB     152      CHL1     H27C     HAL3     0.900000E-01   1.00800           0
     17507 MEMB     153      SAPE     N        NH3L    -0.300000       14.0070           0
     17508 MEMB     153      SAPE     HN1      HCL      0.330000       1.00800           0
     17509 MEMB     153      SAPE     HN2      HCL      0.330000       1.00800           0
     17510 MEMB     153      SAPE     HN3      HCL      0.330000       1.00800           0
     17511 MEMB     153      SAPE     C12      CTL2     0.130000       12.0110           0
     17512 MEMB     153      SAPE     H12A     HAL2     0.900000E-01   1.00800           0
     17513 MEMB     153      SAPE     H12B     HAL2     0.900000E-01   1.00800           0
     17514 MEMB     153      SAPE     C11      CTL2    -0.800000E-01   12.0110           0
     17515 MEMB     153      SAPE     H11A     HAL2     0.900000E-01   1.00800           0
     17516 MEMB     153      SAPE     H11B     HAL2     0.900000E-01   1.00800           0
     17517 MEMB     153      SAPE     P        PL        1.50000       30.9740           0
     17518 MEMB     153      SAPE     O13      O2L     -0.780000       15.9994           0
     17519 MEMB     153      SAPE     O14      O2L     -0.780000       15.9994           0
     17520 MEMB     153      SAPE     O12      OSLP    -0.570000       15.9994           0
     17521 MEMB     153      SAPE     O11      OSLP    -0.570000       15.9994           0
     17522 MEMB     153      SAPE     C1       CTL2    -0.800000E-01   12.0110           0
     17523 MEMB     153      SAPE     HA       HAL2     0.900000E-01   1.00800           0
     17524 MEMB     153      SAPE     HB       HAL2     0.900000E-01   1.00800           0
     17525 MEMB     153      SAPE     C2       CTL1     0.170000       12.0110           0
     17526 MEMB     153      SAPE     HS       HAL1     0.900000E-01   1.00800           0
     17527 MEMB     153      SAPE     O21      OSL     -0.490000       15.9994           0
     17528 MEMB     153      SAPE     C21      CL       0.900000       12.0110           0
     17529 MEMB     153      SAPE     O22      OBL     -0.630000       15.9994           0
     17530 MEMB     153      SAPE     C22      CTL2    -0.220000       12.0110           0
     17531 MEMB     153      SAPE     H2R      HAL2     0.900000E-01   1.00800           0
     17532 MEMB     153      SAPE     H2S      HAL2     0.900000E-01   1.00800           0
     17533 MEMB     153      SAPE     C3       CTL2     0.800000E-01   12.0110           0
     17534 MEMB     153      SAPE     HX       HAL2     0.900000E-01   1.00800           0
     17535 MEMB     153      SAPE     HY       HAL2     0.900000E-01   1.00800           0
     17536 MEMB     153      SAPE     O31      OSL     -0.490000       15.9994           0
     17537 MEMB     153      SAPE     C31      CL       0.900000       12.0110           0
     17538 MEMB     153      SAPE     O32      OBL     -0.630000       15.9994           0
     17539 MEMB     153      SAPE     C32      CTL2    -0.220000       12.0110           0
     17540 MEMB     153      SAPE     H2X      HAL2     0.900000E-01   1.00800           0
     17541 MEMB     153      SAPE     H2Y      HAL2     0.900000E-01   1.00800           0
     17542 MEMB     153      SAPE     C23      CTL2    -0.180000       12.0110           0
     17543 MEMB     153      SAPE     H3R      HAL2     0.900000E-01   1.00800           0
     17544 MEMB     153      SAPE     H3S      HAL2     0.900000E-01   1.00800           0
     17545 MEMB     153      SAPE     C24      CTL2    -0.180000       12.0110           0
     17546 MEMB     153      SAPE     H4R      HAL2     0.900000E-01   1.00800           0
     17547 MEMB     153      SAPE     H4S      HAL2     0.900000E-01   1.00800           0
     17548 MEMB     153      SAPE     C25      CEL1    -0.150000       12.0110           0
     17549 MEMB     153      SAPE     H5R      HEL1     0.150000       1.00800           0
     17550 MEMB     153      SAPE     C26      CEL1    -0.150000       12.0110           0
     17551 MEMB     153      SAPE     H6R      HEL1     0.150000       1.00800           0
     17552 MEMB     153      SAPE     C27      CTL2    -0.180000       12.0110           0
     17553 MEMB     153      SAPE     H7R      HAL2     0.900000E-01   1.00800           0
     17554 MEMB     153      SAPE     H7S      HAL2     0.900000E-01   1.00800           0
     17555 MEMB     153      SAPE     C28      CEL1    -0.150000       12.0110           0
     17556 MEMB     153      SAPE     H8R      HEL1     0.150000       1.00800           0
     17557 MEMB     153      SAPE     C29      CEL1    -0.150000       12.0110           0
     17558 MEMB     153      SAPE     H9R      HEL1     0.150000       1.00800           0
     17559 MEMB     153      SAPE     C210     CTL2    -0.180000       12.0110           0
     17560 MEMB     153      SAPE     H10R     HAL2     0.900000E-01   1.00800           0
     17561 MEMB     153      SAPE     H10S     HAL2     0.900000E-01   1.00800           0
     17562 MEMB     153      SAPE     C211     CEL1    -0.150000       12.0110           0
     17563 MEMB     153      SAPE     H11R     HEL1     0.150000       1.00800           0
     17564 MEMB     153      SAPE     C212     CEL1    -0.150000       12.0110           0
     17565 MEMB     153      SAPE     H12R     HEL1     0.150000       1.00800           0
     17566 MEMB     153      SAPE     C213     CTL2    -0.180000       12.0110           0
     17567 MEMB     153      SAPE     H13R     HAL2     0.900000E-01   1.00800           0
     17568 MEMB     153      SAPE     H13S     HAL2     0.900000E-01   1.00800           0
     17569 MEMB     153      SAPE     C214     CEL1    -0.150000       12.0110           0
     17570 MEMB     153      SAPE     H14R     HEL1     0.150000       1.00800           0
     17571 MEMB     153      SAPE     C215     CEL1    -0.150000       12.0110           0
     17572 MEMB     153      SAPE     H15R     HEL1     0.150000       1.00800           0
     17573 MEMB     153      SAPE     C216     CTL2    -0.180000       12.0110           0
     17574 MEMB     153      SAPE     H16R     HAL2     0.900000E-01   1.00800           0
     17575 MEMB     153      SAPE     H16S     HAL2     0.900000E-01   1.00800           0
     17576 MEMB     153      SAPE     C217     CTL2    -0.180000       12.0110           0
     17577 MEMB     153      SAPE     H17R     HAL2     0.900000E-01   1.00800           0
     17578 MEMB     153      SAPE     H17S     HAL2     0.900000E-01   1.00800           0
     17579 MEMB     153      SAPE     C218     CTL2    -0.180000       12.0110           0
     17580 MEMB     153      SAPE     H18R     HAL2     0.900000E-01   1.00800           0
     17581 MEMB     153      SAPE     H18S     HAL2     0.900000E-01   1.00800           0
     17582 MEMB     153      SAPE     C219     CTL2    -0.180000       12.0110           0
     17583 MEMB     153      SAPE     H19R     HAL2     0.900000E-01   1.00800           0
     17584 MEMB     153      SAPE     H19S     HAL2     0.900000E-01   1.00800           0
     17585 MEMB     153      SAPE     C220     CTL3    -0.270000       12.0110           0
     17586 MEMB     153      SAPE     H20R     HAL3     0.900000E-01   1.00800           0
     17587 MEMB     153      SAPE     H20S     HAL3     0.900000E-01   1.00800           0
     17588 MEMB     153      SAPE     H20T     HAL3     0.900000E-01   1.00800           0
     17589 MEMB     153      SAPE     C33      CTL2    -0.180000       12.0110           0
     17590 MEMB     153      SAPE     H3X      HAL2     0.900000E-01   1.00800           0
     17591 MEMB     153      SAPE     H3Y      HAL2     0.900000E-01   1.00800           0
     17592 MEMB     153      SAPE     C34      CTL2    -0.180000       12.0110           0
     17593 MEMB     153      SAPE     H4X      HAL2     0.900000E-01   1.00800           0
     17594 MEMB     153      SAPE     H4Y      HAL2     0.900000E-01   1.00800           0
     17595 MEMB     153      SAPE     C35      CTL2    -0.180000       12.0110           0
     17596 MEMB     153      SAPE     H5X      HAL2     0.900000E-01   1.00800           0
     17597 MEMB     153      SAPE     H5Y      HAL2     0.900000E-01   1.00800           0
     17598 MEMB     153      SAPE     C36      CTL2    -0.180000       12.0110           0
     17599 MEMB     153      SAPE     H6X      HAL2     0.900000E-01   1.00800           0
     17600 MEMB     153      SAPE     H6Y      HAL2     0.900000E-01   1.00800           0
     17601 MEMB     153      SAPE     C37      CTL2    -0.180000       12.0110           0
     17602 MEMB     153      SAPE     H7X      HAL2     0.900000E-01   1.00800           0
     17603 MEMB     153      SAPE     H7Y      HAL2     0.900000E-01   1.00800           0
     17604 MEMB     153      SAPE     C38      CTL2    -0.180000       12.0110           0
     17605 MEMB     153      SAPE     H8X      HAL2     0.900000E-01   1.00800           0
     17606 MEMB     153      SAPE     H8Y      HAL2     0.900000E-01   1.00800           0
     17607 MEMB     153      SAPE     C39      CTL2    -0.180000       12.0110           0
     17608 MEMB     153      SAPE     H9X      HAL2     0.900000E-01   1.00800           0
     17609 MEMB     153      SAPE     H9Y      HAL2     0.900000E-01   1.00800           0
     17610 MEMB     153      SAPE     C310     CTL2    -0.180000       12.0110           0
     17611 MEMB     153      SAPE     H10X     HAL2     0.900000E-01   1.00800           0
     17612 MEMB     153      SAPE     H10Y     HAL2     0.900000E-01   1.00800           0
     17613 MEMB     153      SAPE     C311     CTL2    -0.180000       12.0110           0
     17614 MEMB     153      SAPE     H11X     HAL2     0.900000E-01   1.00800           0
     17615 MEMB     153      SAPE     H11Y     HAL2     0.900000E-01   1.00800           0
     17616 MEMB     153      SAPE     C312     CTL2    -0.180000       12.0110           0
     17617 MEMB     153      SAPE     H12X     HAL2     0.900000E-01   1.00800           0
     17618 MEMB     153      SAPE     H12Y     HAL2     0.900000E-01   1.00800           0
     17619 MEMB     153      SAPE     C313     CTL2    -0.180000       12.0110           0
     17620 MEMB     153      SAPE     H13X     HAL2     0.900000E-01   1.00800           0
     17621 MEMB     153      SAPE     H13Y     HAL2     0.900000E-01   1.00800           0
     17622 MEMB     153      SAPE     C314     CTL2    -0.180000       12.0110           0
     17623 MEMB     153      SAPE     H14X     HAL2     0.900000E-01   1.00800           0
     17624 MEMB     153      SAPE     H14Y     HAL2     0.900000E-01   1.00800           0
     17625 MEMB     153      SAPE     C315     CTL2    -0.180000       12.0110           0
     17626 MEMB     153      SAPE     H15X     HAL2     0.900000E-01   1.00800           0
     17627 MEMB     153      SAPE     H15Y     HAL2     0.900000E-01   1.00800           0
     17628 MEMB     153      SAPE     C316     CTL2    -0.180000       12.0110           0
     17629 MEMB     153      SAPE     H16X     HAL2     0.900000E-01   1.00800           0
     17630 MEMB     153      SAPE     H16Y     HAL2     0.900000E-01   1.00800           0
     17631 MEMB     153      SAPE     C317     CTL2    -0.180000       12.0110           0
     17632 MEMB     153      SAPE     H17X     HAL2     0.900000E-01   1.00800           0
     17633 MEMB     153      SAPE     H17Y     HAL2     0.900000E-01   1.00800           0
     17634 MEMB     153      SAPE     C318     CTL3    -0.270000       12.0110           0
     17635 MEMB     153      SAPE     H18X     HAL3     0.900000E-01   1.00800           0
     17636 MEMB     153      SAPE     H18Y     HAL3     0.900000E-01   1.00800           0
     17637 MEMB     153      SAPE     H18Z     HAL3     0.900000E-01   1.00800           0
     17638 MEMB     154      SAPI     C12      CC3161   0.140000       12.0110           0
     17639 MEMB     154      SAPI     H2       HCA1     0.900000E-01   1.00800           0
     17640 MEMB     154      SAPI     O2       OC311   -0.650000       15.9994           0
     17641 MEMB     154      SAPI     HO2      HCP1     0.420000       1.00800           0
     17642 MEMB     154      SAPI     C13      CC3161   0.140000       12.0110           0
     17643 MEMB     154      SAPI     H3       HCA1     0.900000E-01   1.00800           0
     17644 MEMB     154      SAPI     O3       OC311   -0.650000       15.9994           0
     17645 MEMB     154      SAPI     HO3      HCP1     0.420000       1.00800           0
     17646 MEMB     154      SAPI     C14      CC3161   0.140000       12.0110           0
     17647 MEMB     154      SAPI     H4       HCA1     0.900000E-01   1.00800           0
     17648 MEMB     154      SAPI     O4       OC311   -0.650000       15.9994           0
     17649 MEMB     154      SAPI     HO4      HCP1     0.420000       1.00800           0
     17650 MEMB     154      SAPI     C15      CC3161   0.140000       12.0110           0
     17651 MEMB     154      SAPI     H5       HCA1     0.900000E-01   1.00800           0
     17652 MEMB     154      SAPI     O5       OC311   -0.650000       15.9994           0
     17653 MEMB     154      SAPI     HO5      HCP1     0.420000       1.00800           0
     17654 MEMB     154      SAPI     C16      CC3161   0.140000       12.0110           0
     17655 MEMB     154      SAPI     H6       HCA1     0.900000E-01   1.00800           0
     17656 MEMB     154      SAPI     O6       OC311   -0.650000       15.9994           0
     17657 MEMB     154      SAPI     HO6      HCP1     0.420000       1.00800           0
     17658 MEMB     154      SAPI     C11      CC3161  -0.800000E-01   12.0110           0
     17659 MEMB     154      SAPI     H1       HCA1     0.900000E-01   1.00800           0
     17660 MEMB     154      SAPI     P        PL        1.59000       30.9740           0
     17661 MEMB     154      SAPI     O13      O2L     -0.780000       15.9994           0
     17662 MEMB     154      SAPI     O14      O2L     -0.780000       15.9994           0
     17663 MEMB     154      SAPI     O12      OC30P   -0.570000       15.9994           0
     17664 MEMB     154      SAPI     O11      OSLP    -0.570000       15.9994           0
     17665 MEMB     154      SAPI     C1       CTL2    -0.800000E-01   12.0110           0
     17666 MEMB     154      SAPI     HA       HAL2     0.900000E-01   1.00800           0
     17667 MEMB     154      SAPI     HB       HAL2     0.900000E-01   1.00800           0
     17668 MEMB     154      SAPI     C2       CTL1     0.170000       12.0110           0
     17669 MEMB     154      SAPI     HS       HAL1     0.900000E-01   1.00800           0
     17670 MEMB     154      SAPI     O21      OSL     -0.490000       15.9994           0
     17671 MEMB     154      SAPI     C21      CL       0.900000       12.0110           0
     17672 MEMB     154      SAPI     O22      OBL     -0.630000       15.9994           0
     17673 MEMB     154      SAPI     C22      CTL2    -0.220000       12.0110           0
     17674 MEMB     154      SAPI     H2R      HAL2     0.900000E-01   1.00800           0
     17675 MEMB     154      SAPI     H2S      HAL2     0.900000E-01   1.00800           0
     17676 MEMB     154      SAPI     C3       CTL2     0.800000E-01   12.0110           0
     17677 MEMB     154      SAPI     HX       HAL2     0.900000E-01   1.00800           0
     17678 MEMB     154      SAPI     HY       HAL2     0.900000E-01   1.00800           0
     17679 MEMB     154      SAPI     O31      OSL     -0.490000       15.9994           0
     17680 MEMB     154      SAPI     C31      CL       0.900000       12.0110           0
     17681 MEMB     154      SAPI     O32      OBL     -0.630000       15.9994           0
     17682 MEMB     154      SAPI     C32      CTL2    -0.220000       12.0110           0
     17683 MEMB     154      SAPI     H2X      HAL2     0.900000E-01   1.00800           0
     17684 MEMB     154      SAPI     H2Y      HAL2     0.900000E-01   1.00800           0
     17685 MEMB     154      SAPI     C23      CTL2    -0.180000       12.0110           0
     17686 MEMB     154      SAPI     H3R      HAL2     0.900000E-01   1.00800           0
     17687 MEMB     154      SAPI     H3S      HAL2     0.900000E-01   1.00800           0
     17688 MEMB     154      SAPI     C24      CTL2    -0.180000       12.0110           0
     17689 MEMB     154      SAPI     H4R      HAL2     0.900000E-01   1.00800           0
     17690 MEMB     154      SAPI     H4S      HAL2     0.900000E-01   1.00800           0
     17691 MEMB     154      SAPI     C25      CEL1    -0.150000       12.0110           0
     17692 MEMB     154      SAPI     H5R      HEL1     0.150000       1.00800           0
     17693 MEMB     154      SAPI     C26      CEL1    -0.150000       12.0110           0
     17694 MEMB     154      SAPI     H6R      HEL1     0.150000       1.00800           0
     17695 MEMB     154      SAPI     C27      CTL2    -0.180000       12.0110           0
     17696 MEMB     154      SAPI     H7R      HAL2     0.900000E-01   1.00800           0
     17697 MEMB     154      SAPI     H7S      HAL2     0.900000E-01   1.00800           0
     17698 MEMB     154      SAPI     C28      CEL1    -0.150000       12.0110           0
     17699 MEMB     154      SAPI     H8R      HEL1     0.150000       1.00800           0
     17700 MEMB     154      SAPI     C29      CEL1    -0.150000       12.0110           0
     17701 MEMB     154      SAPI     H9R      HEL1     0.150000       1.00800           0
     17702 MEMB     154      SAPI     C210     CTL2    -0.180000       12.0110           0
     17703 MEMB     154      SAPI     H10R     HAL2     0.900000E-01   1.00800           0
     17704 MEMB     154      SAPI     H10S     HAL2     0.900000E-01   1.00800           0
     17705 MEMB     154      SAPI     C211     CEL1    -0.150000       12.0110           0
     17706 MEMB     154      SAPI     H11R     HEL1     0.150000       1.00800           0
     17707 MEMB     154      SAPI     C212     CEL1    -0.150000       12.0110           0
     17708 MEMB     154      SAPI     H12R     HEL1     0.150000       1.00800           0
     17709 MEMB     154      SAPI     C213     CTL2    -0.180000       12.0110           0
     17710 MEMB     154      SAPI     H13R     HAL2     0.900000E-01   1.00800           0
     17711 MEMB     154      SAPI     H13S     HAL2     0.900000E-01   1.00800           0
     17712 MEMB     154      SAPI     C214     CEL1    -0.150000       12.0110           0
     17713 MEMB     154      SAPI     H14R     HEL1     0.150000       1.00800           0
     17714 MEMB     154      SAPI     C215     CEL1    -0.150000       12.0110           0
     17715 MEMB     154      SAPI     H15R     HEL1     0.150000       1.00800           0
     17716 MEMB     154      SAPI     C216     CTL2    -0.180000       12.0110           0
     17717 MEMB     154      SAPI     H16R     HAL2     0.900000E-01   1.00800           0
     17718 MEMB     154      SAPI     H16S     HAL2     0.900000E-01   1.00800           0
     17719 MEMB     154      SAPI     C217     CTL2    -0.180000       12.0110           0
     17720 MEMB     154      SAPI     H17R     HAL2     0.900000E-01   1.00800           0
     17721 MEMB     154      SAPI     H17S     HAL2     0.900000E-01   1.00800           0
     17722 MEMB     154      SAPI     C218     CTL2    -0.180000       12.0110           0
     17723 MEMB     154      SAPI     H18R     HAL2     0.900000E-01   1.00800           0
     17724 MEMB     154      SAPI     H18S     HAL2     0.900000E-01   1.00800           0
     17725 MEMB     154      SAPI     C219     CTL2    -0.180000       12.0110           0
     17726 MEMB     154      SAPI     H19R     HAL2     0.900000E-01   1.00800           0
     17727 MEMB     154      SAPI     H19S     HAL2     0.900000E-01   1.00800           0
     17728 MEMB     154      SAPI     C220     CTL3    -0.270000       12.0110           0
     17729 MEMB     154      SAPI     H20R     HAL3     0.900000E-01   1.00800           0
     17730 MEMB     154      SAPI     H20S     HAL3     0.900000E-01   1.00800           0
     17731 MEMB     154      SAPI     H20T     HAL3     0.900000E-01   1.00800           0
     17732 MEMB     154      SAPI     C33      CTL2    -0.180000       12.0110           0
     17733 MEMB     154      SAPI     H3X      HAL2     0.900000E-01   1.00800           0
     17734 MEMB     154      SAPI     H3Y      HAL2     0.900000E-01   1.00800           0
     17735 MEMB     154      SAPI     C34      CTL2    -0.180000       12.0110           0
     17736 MEMB     154      SAPI     H4X      HAL2     0.900000E-01   1.00800           0
     17737 MEMB     154      SAPI     H4Y      HAL2     0.900000E-01   1.00800           0
     17738 MEMB     154      SAPI     C35      CTL2    -0.180000       12.0110           0
     17739 MEMB     154      SAPI     H5X      HAL2     0.900000E-01   1.00800           0
     17740 MEMB     154      SAPI     H5Y      HAL2     0.900000E-01   1.00800           0
     17741 MEMB     154      SAPI     C36      CTL2    -0.180000       12.0110           0
     17742 MEMB     154      SAPI     H6X      HAL2     0.900000E-01   1.00800           0
     17743 MEMB     154      SAPI     H6Y      HAL2     0.900000E-01   1.00800           0
     17744 MEMB     154      SAPI     C37      CTL2    -0.180000       12.0110           0
     17745 MEMB     154      SAPI     H7X      HAL2     0.900000E-01   1.00800           0
     17746 MEMB     154      SAPI     H7Y      HAL2     0.900000E-01   1.00800           0
     17747 MEMB     154      SAPI     C38      CTL2    -0.180000       12.0110           0
     17748 MEMB     154      SAPI     H8X      HAL2     0.900000E-01   1.00800           0
     17749 MEMB     154      SAPI     H8Y      HAL2     0.900000E-01   1.00800           0
     17750 MEMB     154      SAPI     C39      CTL2    -0.180000       12.0110           0
     17751 MEMB     154      SAPI     H9X      HAL2     0.900000E-01   1.00800           0
     17752 MEMB     154      SAPI     H9Y      HAL2     0.900000E-01   1.00800           0
     17753 MEMB     154      SAPI     C310     CTL2    -0.180000       12.0110           0
     17754 MEMB     154      SAPI     H10X     HAL2     0.900000E-01   1.00800           0
     17755 MEMB     154      SAPI     H10Y     HAL2     0.900000E-01   1.00800           0
     17756 MEMB     154      SAPI     C311     CTL2    -0.180000       12.0110           0
     17757 MEMB     154      SAPI     H11X     HAL2     0.900000E-01   1.00800           0
     17758 MEMB     154      SAPI     H11Y     HAL2     0.900000E-01   1.00800           0
     17759 MEMB     154      SAPI     C312     CTL2    -0.180000       12.0110           0
     17760 MEMB     154      SAPI     H12X     HAL2     0.900000E-01   1.00800           0
     17761 MEMB     154      SAPI     H12Y     HAL2     0.900000E-01   1.00800           0
     17762 MEMB     154      SAPI     C313     CTL2    -0.180000       12.0110           0
     17763 MEMB     154      SAPI     H13X     HAL2     0.900000E-01   1.00800           0
     17764 MEMB     154      SAPI     H13Y     HAL2     0.900000E-01   1.00800           0
     17765 MEMB     154      SAPI     C314     CTL2    -0.180000       12.0110           0
     17766 MEMB     154      SAPI     H14X     HAL2     0.900000E-01   1.00800           0
     17767 MEMB     154      SAPI     H14Y     HAL2     0.900000E-01   1.00800           0
     17768 MEMB     154      SAPI     C315     CTL2    -0.180000       12.0110           0
     17769 MEMB     154      SAPI     H15X     HAL2     0.900000E-01   1.00800           0
     17770 MEMB     154      SAPI     H15Y     HAL2     0.900000E-01   1.00800           0
     17771 MEMB     154      SAPI     C316     CTL2    -0.180000       12.0110           0
     17772 MEMB     154      SAPI     H16X     HAL2     0.900000E-01   1.00800           0
     17773 MEMB     154      SAPI     H16Y     HAL2     0.900000E-01   1.00800           0
     17774 MEMB     154      SAPI     C317     CTL2    -0.180000       12.0110           0
     17775 MEMB     154      SAPI     H17X     HAL2     0.900000E-01   1.00800           0
     17776 MEMB     154      SAPI     H17Y     HAL2     0.900000E-01   1.00800           0
     17777 MEMB     154      SAPI     C318     CTL3    -0.270000       12.0110           0
     17778 MEMB     154      SAPI     H18X     HAL3     0.900000E-01   1.00800           0
     17779 MEMB     154      SAPI     H18Y     HAL3     0.900000E-01   1.00800           0
     17780 MEMB     154      SAPI     H18Z     HAL3     0.900000E-01   1.00800           0
     17781 MEMB     155      CHL1     C3       CRL1     0.140000       12.0110           0
     17782 MEMB     155      CHL1     H3       HGA1     0.900000E-01   1.00800           0
     17783 MEMB     155      CHL1     O3       OHL     -0.660000       15.9994           0
     17784 MEMB     155      CHL1     H3'      HOL      0.430000       1.00800           0
     17785 MEMB     155      CHL1     C4       CRL2    -0.180000       12.0110           0
     17786 MEMB     155      CHL1     H4A      HGA2     0.900000E-01   1.00800           0
     17787 MEMB     155      CHL1     H4B      HGA2     0.900000E-01   1.00800           0
     17788 MEMB     155      CHL1     C5       CEL1      0.00000       12.0110           0
     17789 MEMB     155      CHL1     C6       CEL1    -0.150000       12.0110           0
     17790 MEMB     155      CHL1     H6       HEL1     0.150000       1.00800           0
     17791 MEMB     155      CHL1     C7       CRL2    -0.180000       12.0110           0
     17792 MEMB     155      CHL1     H7A      HGA2     0.900000E-01   1.00800           0
     17793 MEMB     155      CHL1     H7B      HGA2     0.900000E-01   1.00800           0
     17794 MEMB     155      CHL1     C8       CRL1    -0.900000E-01   12.0110           0
     17795 MEMB     155      CHL1     H8       HGA1     0.900000E-01   1.00800           0
     17796 MEMB     155      CHL1     C14      CRL1    -0.900000E-01   12.0110           0
     17797 MEMB     155      CHL1     H14      HGA1     0.900000E-01   1.00800           0
     17798 MEMB     155      CHL1     C15      CRL2    -0.180000       12.0110           0
     17799 MEMB     155      CHL1     H15A     HGA2     0.900000E-01   1.00800           0
     17800 MEMB     155      CHL1     H15B     HGA2     0.900000E-01   1.00800           0
     17801 MEMB     155      CHL1     C16      CRL2    -0.180000       12.0110           0
     17802 MEMB     155      CHL1     H16A     HGA2     0.900000E-01   1.00800           0
     17803 MEMB     155      CHL1     H16B     HGA2     0.900000E-01   1.00800           0
     17804 MEMB     155      CHL1     C17      CRL1    -0.900000E-01   12.0110           0
     17805 MEMB     155      CHL1     H17      HGA1     0.900000E-01   1.00800           0
     17806 MEMB     155      CHL1     C13      CRL1      0.00000       12.0110           0
     17807 MEMB     155      CHL1     C18      CTL3    -0.270000       12.0110           0
     17808 MEMB     155      CHL1     H18A     HAL3     0.900000E-01   1.00800           0
     17809 MEMB     155      CHL1     H18B     HAL3     0.900000E-01   1.00800           0
     17810 MEMB     155      CHL1     H18C     HAL3     0.900000E-01   1.00800           0
     17811 MEMB     155      CHL1     C12      CRL2    -0.180000       12.0110           0
     17812 MEMB     155      CHL1     H12A     HGA2     0.900000E-01   1.00800           0
     17813 MEMB     155      CHL1     H12B     HGA2     0.900000E-01   1.00800           0
     17814 MEMB     155      CHL1     C11      CRL2    -0.180000       12.0110           0
     17815 MEMB     155      CHL1     H11A     HGA2     0.900000E-01   1.00800           0
     17816 MEMB     155      CHL1     H11B     HGA2     0.900000E-01   1.00800           0
     17817 MEMB     155      CHL1     C9       CRL1    -0.900000E-01   12.0110           0
     17818 MEMB     155      CHL1     H9       HGA1     0.900000E-01   1.00800           0
     17819 MEMB     155      CHL1     C10      CRL1      0.00000       12.0110           0
     17820 MEMB     155      CHL1     C19      CTL3    -0.270000       12.0110           0
     17821 MEMB     155      CHL1     H19A     HAL3     0.900000E-01   1.00800           0
     17822 MEMB     155      CHL1     H19B     HAL3     0.900000E-01   1.00800           0
     17823 MEMB     155      CHL1     H19C     HAL3     0.900000E-01   1.00800           0
     17824 MEMB     155      CHL1     C1       CRL2    -0.180000       12.0110           0
     17825 MEMB     155      CHL1     H1A      HGA2     0.900000E-01   1.00800           0
     17826 MEMB     155      CHL1     H1B      HGA2     0.900000E-01   1.00800           0
     17827 MEMB     155      CHL1     C2       CRL2    -0.180000       12.0110           0
     17828 MEMB     155      CHL1     H2A      HGA2     0.900000E-01   1.00800           0
     17829 MEMB     155      CHL1     H2B      HGA2     0.900000E-01   1.00800           0
     17830 MEMB     155      CHL1     C20      CTL1    -0.900000E-01   12.0110           0
     17831 MEMB     155      CHL1     H20      HAL1     0.900000E-01   1.00800           0
     17832 MEMB     155      CHL1     C21      CTL3    -0.270000       12.0110           0
     17833 MEMB     155      CHL1     H21A     HAL3     0.900000E-01   1.00800           0
     17834 MEMB     155      CHL1     H21B     HAL3     0.900000E-01   1.00800           0
     17835 MEMB     155      CHL1     H21C     HAL3     0.900000E-01   1.00800           0
     17836 MEMB     155      CHL1     C22      CTL2    -0.180000       12.0110           0
     17837 MEMB     155      CHL1     H22A     HAL2     0.900000E-01   1.00800           0
     17838 MEMB     155      CHL1     H22B     HAL2     0.900000E-01   1.00800           0
     17839 MEMB     155      CHL1     C23      CTL2    -0.180000       12.0110           0
     17840 MEMB     155      CHL1     H23A     HAL2     0.900000E-01   1.00800           0
     17841 MEMB     155      CHL1     H23B     HAL2     0.900000E-01   1.00800           0
     17842 MEMB     155      CHL1     C24      CTL2    -0.180000       12.0110           0
     17843 MEMB     155      CHL1     H24A     HAL2     0.900000E-01   1.00800           0
     17844 MEMB     155      CHL1     H24B     HAL2     0.900000E-01   1.00800           0
     17845 MEMB     155      CHL1     C25      CTL1    -0.900000E-01   12.0110           0
     17846 MEMB     155      CHL1     H25      HAL1     0.900000E-01   1.00800           0
     17847 MEMB     155      CHL1     C26      CTL3    -0.270000       12.0110           0
     17848 MEMB     155      CHL1     H26A     HAL3     0.900000E-01   1.00800           0
     17849 MEMB     155      CHL1     H26B     HAL3     0.900000E-01   1.00800           0
     17850 MEMB     155      CHL1     H26C     HAL3     0.900000E-01   1.00800           0
     17851 MEMB     155      CHL1     C27      CTL3    -0.270000       12.0110           0
     17852 MEMB     155      CHL1     H27A     HAL3     0.900000E-01   1.00800           0
     17853 MEMB     155      CHL1     H27B     HAL3     0.900000E-01   1.00800           0
     17854 MEMB     155      CHL1     H27C     HAL3     0.900000E-01   1.00800           0
     17855 MEMB     156      SAPI     C12      CC3161   0.140000       12.0110           0
     17856 MEMB     156      SAPI     H2       HCA1     0.900000E-01   1.00800           0
     17857 MEMB     156      SAPI     O2       OC311   -0.650000       15.9994           0
     17858 MEMB     156      SAPI     HO2      HCP1     0.420000       1.00800           0
     17859 MEMB     156      SAPI     C13      CC3161   0.140000       12.0110           0
     17860 MEMB     156      SAPI     H3       HCA1     0.900000E-01   1.00800           0
     17861 MEMB     156      SAPI     O3       OC311   -0.650000       15.9994           0
     17862 MEMB     156      SAPI     HO3      HCP1     0.420000       1.00800           0
     17863 MEMB     156      SAPI     C14      CC3161   0.140000       12.0110           0
     17864 MEMB     156      SAPI     H4       HCA1     0.900000E-01   1.00800           0
     17865 MEMB     156      SAPI     O4       OC311   -0.650000       15.9994           0
     17866 MEMB     156      SAPI     HO4      HCP1     0.420000       1.00800           0
     17867 MEMB     156      SAPI     C15      CC3161   0.140000       12.0110           0
     17868 MEMB     156      SAPI     H5       HCA1     0.900000E-01   1.00800           0
     17869 MEMB     156      SAPI     O5       OC311   -0.650000       15.9994           0
     17870 MEMB     156      SAPI     HO5      HCP1     0.420000       1.00800           0
     17871 MEMB     156      SAPI     C16      CC3161   0.140000       12.0110           0
     17872 MEMB     156      SAPI     H6       HCA1     0.900000E-01   1.00800           0
     17873 MEMB     156      SAPI     O6       OC311   -0.650000       15.9994           0
     17874 MEMB     156      SAPI     HO6      HCP1     0.420000       1.00800           0
     17875 MEMB     156      SAPI     C11      CC3161  -0.800000E-01   12.0110           0
     17876 MEMB     156      SAPI     H1       HCA1     0.900000E-01   1.00800           0
     17877 MEMB     156      SAPI     P        PL        1.59000       30.9740           0
     17878 MEMB     156      SAPI     O13      O2L     -0.780000       15.9994           0
     17879 MEMB     156      SAPI     O14      O2L     -0.780000       15.9994           0
     17880 MEMB     156      SAPI     O12      OC30P   -0.570000       15.9994           0
     17881 MEMB     156      SAPI     O11      OSLP    -0.570000       15.9994           0
     17882 MEMB     156      SAPI     C1       CTL2    -0.800000E-01   12.0110           0
     17883 MEMB     156      SAPI     HA       HAL2     0.900000E-01   1.00800           0
     17884 MEMB     156      SAPI     HB       HAL2     0.900000E-01   1.00800           0
     17885 MEMB     156      SAPI     C2       CTL1     0.170000       12.0110           0
     17886 MEMB     156      SAPI     HS       HAL1     0.900000E-01   1.00800           0
     17887 MEMB     156      SAPI     O21      OSL     -0.490000       15.9994           0
     17888 MEMB     156      SAPI     C21      CL       0.900000       12.0110           0
     17889 MEMB     156      SAPI     O22      OBL     -0.630000       15.9994           0
     17890 MEMB     156      SAPI     C22      CTL2    -0.220000       12.0110           0
     17891 MEMB     156      SAPI     H2R      HAL2     0.900000E-01   1.00800           0
     17892 MEMB     156      SAPI     H2S      HAL2     0.900000E-01   1.00800           0
     17893 MEMB     156      SAPI     C3       CTL2     0.800000E-01   12.0110           0
     17894 MEMB     156      SAPI     HX       HAL2     0.900000E-01   1.00800           0
     17895 MEMB     156      SAPI     HY       HAL2     0.900000E-01   1.00800           0
     17896 MEMB     156      SAPI     O31      OSL     -0.490000       15.9994           0
     17897 MEMB     156      SAPI     C31      CL       0.900000       12.0110           0
     17898 MEMB     156      SAPI     O32      OBL     -0.630000       15.9994           0
     17899 MEMB     156      SAPI     C32      CTL2    -0.220000       12.0110           0
     17900 MEMB     156      SAPI     H2X      HAL2     0.900000E-01   1.00800           0
     17901 MEMB     156      SAPI     H2Y      HAL2     0.900000E-01   1.00800           0
     17902 MEMB     156      SAPI     C23      CTL2    -0.180000       12.0110           0
     17903 MEMB     156      SAPI     H3R      HAL2     0.900000E-01   1.00800           0
     17904 MEMB     156      SAPI     H3S      HAL2     0.900000E-01   1.00800           0
     17905 MEMB     156      SAPI     C24      CTL2    -0.180000       12.0110           0
     17906 MEMB     156      SAPI     H4R      HAL2     0.900000E-01   1.00800           0
     17907 MEMB     156      SAPI     H4S      HAL2     0.900000E-01   1.00800           0
     17908 MEMB     156      SAPI     C25      CEL1    -0.150000       12.0110           0
     17909 MEMB     156      SAPI     H5R      HEL1     0.150000       1.00800           0
     17910 MEMB     156      SAPI     C26      CEL1    -0.150000       12.0110           0
     17911 MEMB     156      SAPI     H6R      HEL1     0.150000       1.00800           0
     17912 MEMB     156      SAPI     C27      CTL2    -0.180000       12.0110           0
     17913 MEMB     156      SAPI     H7R      HAL2     0.900000E-01   1.00800           0
     17914 MEMB     156      SAPI     H7S      HAL2     0.900000E-01   1.00800           0
     17915 MEMB     156      SAPI     C28      CEL1    -0.150000       12.0110           0
     17916 MEMB     156      SAPI     H8R      HEL1     0.150000       1.00800           0
     17917 MEMB     156      SAPI     C29      CEL1    -0.150000       12.0110           0
     17918 MEMB     156      SAPI     H9R      HEL1     0.150000       1.00800           0
     17919 MEMB     156      SAPI     C210     CTL2    -0.180000       12.0110           0
     17920 MEMB     156      SAPI     H10R     HAL2     0.900000E-01   1.00800           0
     17921 MEMB     156      SAPI     H10S     HAL2     0.900000E-01   1.00800           0
     17922 MEMB     156      SAPI     C211     CEL1    -0.150000       12.0110           0
     17923 MEMB     156      SAPI     H11R     HEL1     0.150000       1.00800           0
     17924 MEMB     156      SAPI     C212     CEL1    -0.150000       12.0110           0
     17925 MEMB     156      SAPI     H12R     HEL1     0.150000       1.00800           0
     17926 MEMB     156      SAPI     C213     CTL2    -0.180000       12.0110           0
     17927 MEMB     156      SAPI     H13R     HAL2     0.900000E-01   1.00800           0
     17928 MEMB     156      SAPI     H13S     HAL2     0.900000E-01   1.00800           0
     17929 MEMB     156      SAPI     C214     CEL1    -0.150000       12.0110           0
     17930 MEMB     156      SAPI     H14R     HEL1     0.150000       1.00800           0
     17931 MEMB     156      SAPI     C215     CEL1    -0.150000       12.0110           0
     17932 MEMB     156      SAPI     H15R     HEL1     0.150000       1.00800           0
     17933 MEMB     156      SAPI     C216     CTL2    -0.180000       12.0110           0
     17934 MEMB     156      SAPI     H16R     HAL2     0.900000E-01   1.00800           0
     17935 MEMB     156      SAPI     H16S     HAL2     0.900000E-01   1.00800           0
     17936 MEMB     156      SAPI     C217     CTL2    -0.180000       12.0110           0
     17937 MEMB     156      SAPI     H17R     HAL2     0.900000E-01   1.00800           0
     17938 MEMB     156      SAPI     H17S     HAL2     0.900000E-01   1.00800           0
     17939 MEMB     156      SAPI     C218     CTL2    -0.180000       12.0110           0
     17940 MEMB     156      SAPI     H18R     HAL2     0.900000E-01   1.00800           0
     17941 MEMB     156      SAPI     H18S     HAL2     0.900000E-01   1.00800           0
     17942 MEMB     156      SAPI     C219     CTL2    -0.180000       12.0110           0
     17943 MEMB     156      SAPI     H19R     HAL2     0.900000E-01   1.00800           0
     17944 MEMB     156      SAPI     H19S     HAL2     0.900000E-01   1.00800           0
     17945 MEMB     156      SAPI     C220     CTL3    -0.270000       12.0110           0
     17946 MEMB     156      SAPI     H20R     HAL3     0.900000E-01   1.00800           0
     17947 MEMB     156      SAPI     H20S     HAL3     0.900000E-01   1.00800           0
     17948 MEMB     156      SAPI     H20T     HAL3     0.900000E-01   1.00800           0
     17949 MEMB     156      SAPI     C33      CTL2    -0.180000       12.0110           0
     17950 MEMB     156      SAPI     H3X      HAL2     0.900000E-01   1.00800           0
     17951 MEMB     156      SAPI     H3Y      HAL2     0.900000E-01   1.00800           0
     17952 MEMB     156      SAPI     C34      CTL2    -0.180000       12.0110           0
     17953 MEMB     156      SAPI     H4X      HAL2     0.900000E-01   1.00800           0
     17954 MEMB     156      SAPI     H4Y      HAL2     0.900000E-01   1.00800           0
     17955 MEMB     156      SAPI     C35      CTL2    -0.180000       12.0110           0
     17956 MEMB     156      SAPI     H5X      HAL2     0.900000E-01   1.00800           0
     17957 MEMB     156      SAPI     H5Y      HAL2     0.900000E-01   1.00800           0
     17958 MEMB     156      SAPI     C36      CTL2    -0.180000       12.0110           0
     17959 MEMB     156      SAPI     H6X      HAL2     0.900000E-01   1.00800           0
     17960 MEMB     156      SAPI     H6Y      HAL2     0.900000E-01   1.00800           0
     17961 MEMB     156      SAPI     C37      CTL2    -0.180000       12.0110           0
     17962 MEMB     156      SAPI     H7X      HAL2     0.900000E-01   1.00800           0
     17963 MEMB     156      SAPI     H7Y      HAL2     0.900000E-01   1.00800           0
     17964 MEMB     156      SAPI     C38      CTL2    -0.180000       12.0110           0
     17965 MEMB     156      SAPI     H8X      HAL2     0.900000E-01   1.00800           0
     17966 MEMB     156      SAPI     H8Y      HAL2     0.900000E-01   1.00800           0
     17967 MEMB     156      SAPI     C39      CTL2    -0.180000       12.0110           0
     17968 MEMB     156      SAPI     H9X      HAL2     0.900000E-01   1.00800           0
     17969 MEMB     156      SAPI     H9Y      HAL2     0.900000E-01   1.00800           0
     17970 MEMB     156      SAPI     C310     CTL2    -0.180000       12.0110           0
     17971 MEMB     156      SAPI     H10X     HAL2     0.900000E-01   1.00800           0
     17972 MEMB     156      SAPI     H10Y     HAL2     0.900000E-01   1.00800           0
     17973 MEMB     156      SAPI     C311     CTL2    -0.180000       12.0110           0
     17974 MEMB     156      SAPI     H11X     HAL2     0.900000E-01   1.00800           0
     17975 MEMB     156      SAPI     H11Y     HAL2     0.900000E-01   1.00800           0
     17976 MEMB     156      SAPI     C312     CTL2    -0.180000       12.0110           0
     17977 MEMB     156      SAPI     H12X     HAL2     0.900000E-01   1.00800           0
     17978 MEMB     156      SAPI     H12Y     HAL2     0.900000E-01   1.00800           0
     17979 MEMB     156      SAPI     C313     CTL2    -0.180000       12.0110           0
     17980 MEMB     156      SAPI     H13X     HAL2     0.900000E-01   1.00800           0
     17981 MEMB     156      SAPI     H13Y     HAL2     0.900000E-01   1.00800           0
     17982 MEMB     156      SAPI     C314     CTL2    -0.180000       12.0110           0
     17983 MEMB     156      SAPI     H14X     HAL2     0.900000E-01   1.00800           0
     17984 MEMB     156      SAPI     H14Y     HAL2     0.900000E-01   1.00800           0
     17985 MEMB     156      SAPI     C315     CTL2    -0.180000       12.0110           0
     17986 MEMB     156      SAPI     H15X     HAL2     0.900000E-01   1.00800           0
     17987 MEMB     156      SAPI     H15Y     HAL2     0.900000E-01   1.00800           0
     17988 MEMB     156      SAPI     C316     CTL2    -0.180000       12.0110           0
     17989 MEMB     156      SAPI     H16X     HAL2     0.900000E-01   1.00800           0
     17990 MEMB     156      SAPI     H16Y     HAL2     0.900000E-01   1.00800           0
     17991 MEMB     156      SAPI     C317     CTL2    -0.180000       12.0110           0
     17992 MEMB     156      SAPI     H17X     HAL2     0.900000E-01   1.00800           0
     17993 MEMB     156      SAPI     H17Y     HAL2     0.900000E-01   1.00800           0
     17994 MEMB     156      SAPI     C318     CTL3    -0.270000       12.0110           0
     17995 MEMB     156      SAPI     H18X     HAL3     0.900000E-01   1.00800           0
     17996 MEMB     156      SAPI     H18Y     HAL3     0.900000E-01   1.00800           0
     17997 MEMB     156      SAPI     H18Z     HAL3     0.900000E-01   1.00800           0
     17998 MEMB     157      SAPE     N        NH3L    -0.300000       14.0070           0
     17999 MEMB     157      SAPE     HN1      HCL      0.330000       1.00800           0
     18000 MEMB     157      SAPE     HN2      HCL      0.330000       1.00800           0
     18001 MEMB     157      SAPE     HN3      HCL      0.330000       1.00800           0
     18002 MEMB     157      SAPE     C12      CTL2     0.130000       12.0110           0
     18003 MEMB     157      SAPE     H12A     HAL2     0.900000E-01   1.00800           0
     18004 MEMB     157      SAPE     H12B     HAL2     0.900000E-01   1.00800           0
     18005 MEMB     157      SAPE     C11      CTL2    -0.800000E-01   12.0110           0
     18006 MEMB     157      SAPE     H11A     HAL2     0.900000E-01   1.00800           0
     18007 MEMB     157      SAPE     H11B     HAL2     0.900000E-01   1.00800           0
     18008 MEMB     157      SAPE     P        PL        1.50000       30.9740           0
     18009 MEMB     157      SAPE     O13      O2L     -0.780000       15.9994           0
     18010 MEMB     157      SAPE     O14      O2L     -0.780000       15.9994           0
     18011 MEMB     157      SAPE     O12      OSLP    -0.570000       15.9994           0
     18012 MEMB     157      SAPE     O11      OSLP    -0.570000       15.9994           0
     18013 MEMB     157      SAPE     C1       CTL2    -0.800000E-01   12.0110           0
     18014 MEMB     157      SAPE     HA       HAL2     0.900000E-01   1.00800           0
     18015 MEMB     157      SAPE     HB       HAL2     0.900000E-01   1.00800           0
     18016 MEMB     157      SAPE     C2       CTL1     0.170000       12.0110           0
     18017 MEMB     157      SAPE     HS       HAL1     0.900000E-01   1.00800           0
     18018 MEMB     157      SAPE     O21      OSL     -0.490000       15.9994           0
     18019 MEMB     157      SAPE     C21      CL       0.900000       12.0110           0
     18020 MEMB     157      SAPE     O22      OBL     -0.630000       15.9994           0
     18021 MEMB     157      SAPE     C22      CTL2    -0.220000       12.0110           0
     18022 MEMB     157      SAPE     H2R      HAL2     0.900000E-01   1.00800           0
     18023 MEMB     157      SAPE     H2S      HAL2     0.900000E-01   1.00800           0
     18024 MEMB     157      SAPE     C3       CTL2     0.800000E-01   12.0110           0
     18025 MEMB     157      SAPE     HX       HAL2     0.900000E-01   1.00800           0
     18026 MEMB     157      SAPE     HY       HAL2     0.900000E-01   1.00800           0
     18027 MEMB     157      SAPE     O31      OSL     -0.490000       15.9994           0
     18028 MEMB     157      SAPE     C31      CL       0.900000       12.0110           0
     18029 MEMB     157      SAPE     O32      OBL     -0.630000       15.9994           0
     18030 MEMB     157      SAPE     C32      CTL2    -0.220000       12.0110           0
     18031 MEMB     157      SAPE     H2X      HAL2     0.900000E-01   1.00800           0
     18032 MEMB     157      SAPE     H2Y      HAL2     0.900000E-01   1.00800           0
     18033 MEMB     157      SAPE     C23      CTL2    -0.180000       12.0110           0
     18034 MEMB     157      SAPE     H3R      HAL2     0.900000E-01   1.00800           0
     18035 MEMB     157      SAPE     H3S      HAL2     0.900000E-01   1.00800           0
     18036 MEMB     157      SAPE     C24      CTL2    -0.180000       12.0110           0
     18037 MEMB     157      SAPE     H4R      HAL2     0.900000E-01   1.00800           0
     18038 MEMB     157      SAPE     H4S      HAL2     0.900000E-01   1.00800           0
     18039 MEMB     157      SAPE     C25      CEL1    -0.150000       12.0110           0
     18040 MEMB     157      SAPE     H5R      HEL1     0.150000       1.00800           0
     18041 MEMB     157      SAPE     C26      CEL1    -0.150000       12.0110           0
     18042 MEMB     157      SAPE     H6R      HEL1     0.150000       1.00800           0
     18043 MEMB     157      SAPE     C27      CTL2    -0.180000       12.0110           0
     18044 MEMB     157      SAPE     H7R      HAL2     0.900000E-01   1.00800           0
     18045 MEMB     157      SAPE     H7S      HAL2     0.900000E-01   1.00800           0
     18046 MEMB     157      SAPE     C28      CEL1    -0.150000       12.0110           0
     18047 MEMB     157      SAPE     H8R      HEL1     0.150000       1.00800           0
     18048 MEMB     157      SAPE     C29      CEL1    -0.150000       12.0110           0
     18049 MEMB     157      SAPE     H9R      HEL1     0.150000       1.00800           0
     18050 MEMB     157      SAPE     C210     CTL2    -0.180000       12.0110           0
     18051 MEMB     157      SAPE     H10R     HAL2     0.900000E-01   1.00800           0
     18052 MEMB     157      SAPE     H10S     HAL2     0.900000E-01   1.00800           0
     18053 MEMB     157      SAPE     C211     CEL1    -0.150000       12.0110           0
     18054 MEMB     157      SAPE     H11R     HEL1     0.150000       1.00800           0
     18055 MEMB     157      SAPE     C212     CEL1    -0.150000       12.0110           0
     18056 MEMB     157      SAPE     H12R     HEL1     0.150000       1.00800           0
     18057 MEMB     157      SAPE     C213     CTL2    -0.180000       12.0110           0
     18058 MEMB     157      SAPE     H13R     HAL2     0.900000E-01   1.00800           0
     18059 MEMB     157      SAPE     H13S     HAL2     0.900000E-01   1.00800           0
     18060 MEMB     157      SAPE     C214     CEL1    -0.150000       12.0110           0
     18061 MEMB     157      SAPE     H14R     HEL1     0.150000       1.00800           0
     18062 MEMB     157      SAPE     C215     CEL1    -0.150000       12.0110           0
     18063 MEMB     157      SAPE     H15R     HEL1     0.150000       1.00800           0
     18064 MEMB     157      SAPE     C216     CTL2    -0.180000       12.0110           0
     18065 MEMB     157      SAPE     H16R     HAL2     0.900000E-01   1.00800           0
     18066 MEMB     157      SAPE     H16S     HAL2     0.900000E-01   1.00800           0
     18067 MEMB     157      SAPE     C217     CTL2    -0.180000       12.0110           0
     18068 MEMB     157      SAPE     H17R     HAL2     0.900000E-01   1.00800           0
     18069 MEMB     157      SAPE     H17S     HAL2     0.900000E-01   1.00800           0
     18070 MEMB     157      SAPE     C218     CTL2    -0.180000       12.0110           0
     18071 MEMB     157      SAPE     H18R     HAL2     0.900000E-01   1.00800           0
     18072 MEMB     157      SAPE     H18S     HAL2     0.900000E-01   1.00800           0
     18073 MEMB     157      SAPE     C219     CTL2    -0.180000       12.0110           0
     18074 MEMB     157      SAPE     H19R     HAL2     0.900000E-01   1.00800           0
     18075 MEMB     157      SAPE     H19S     HAL2     0.900000E-01   1.00800           0
     18076 MEMB     157      SAPE     C220     CTL3    -0.270000       12.0110           0
     18077 MEMB     157      SAPE     H20R     HAL3     0.900000E-01   1.00800           0
     18078 MEMB     157      SAPE     H20S     HAL3     0.900000E-01   1.00800           0
     18079 MEMB     157      SAPE     H20T     HAL3     0.900000E-01   1.00800           0
     18080 MEMB     157      SAPE     C33      CTL2    -0.180000       12.0110           0
     18081 MEMB     157      SAPE     H3X      HAL2     0.900000E-01   1.00800           0
     18082 MEMB     157      SAPE     H3Y      HAL2     0.900000E-01   1.00800           0
     18083 MEMB     157      SAPE     C34      CTL2    -0.180000       12.0110           0
     18084 MEMB     157      SAPE     H4X      HAL2     0.900000E-01   1.00800           0
     18085 MEMB     157      SAPE     H4Y      HAL2     0.900000E-01   1.00800           0
     18086 MEMB     157      SAPE     C35      CTL2    -0.180000       12.0110           0
     18087 MEMB     157      SAPE     H5X      HAL2     0.900000E-01   1.00800           0
     18088 MEMB     157      SAPE     H5Y      HAL2     0.900000E-01   1.00800           0
     18089 MEMB     157      SAPE     C36      CTL2    -0.180000       12.0110           0
     18090 MEMB     157      SAPE     H6X      HAL2     0.900000E-01   1.00800           0
     18091 MEMB     157      SAPE     H6Y      HAL2     0.900000E-01   1.00800           0
     18092 MEMB     157      SAPE     C37      CTL2    -0.180000       12.0110           0
     18093 MEMB     157      SAPE     H7X      HAL2     0.900000E-01   1.00800           0
     18094 MEMB     157      SAPE     H7Y      HAL2     0.900000E-01   1.00800           0
     18095 MEMB     157      SAPE     C38      CTL2    -0.180000       12.0110           0
     18096 MEMB     157      SAPE     H8X      HAL2     0.900000E-01   1.00800           0
     18097 MEMB     157      SAPE     H8Y      HAL2     0.900000E-01   1.00800           0
     18098 MEMB     157      SAPE     C39      CTL2    -0.180000       12.0110           0
     18099 MEMB     157      SAPE     H9X      HAL2     0.900000E-01   1.00800           0
     18100 MEMB     157      SAPE     H9Y      HAL2     0.900000E-01   1.00800           0
     18101 MEMB     157      SAPE     C310     CTL2    -0.180000       12.0110           0
     18102 MEMB     157      SAPE     H10X     HAL2     0.900000E-01   1.00800           0
     18103 MEMB     157      SAPE     H10Y     HAL2     0.900000E-01   1.00800           0
     18104 MEMB     157      SAPE     C311     CTL2    -0.180000       12.0110           0
     18105 MEMB     157      SAPE     H11X     HAL2     0.900000E-01   1.00800           0
     18106 MEMB     157      SAPE     H11Y     HAL2     0.900000E-01   1.00800           0
     18107 MEMB     157      SAPE     C312     CTL2    -0.180000       12.0110           0
     18108 MEMB     157      SAPE     H12X     HAL2     0.900000E-01   1.00800           0
     18109 MEMB     157      SAPE     H12Y     HAL2     0.900000E-01   1.00800           0
     18110 MEMB     157      SAPE     C313     CTL2    -0.180000       12.0110           0
     18111 MEMB     157      SAPE     H13X     HAL2     0.900000E-01   1.00800           0
     18112 MEMB     157      SAPE     H13Y     HAL2     0.900000E-01   1.00800           0
     18113 MEMB     157      SAPE     C314     CTL2    -0.180000       12.0110           0
     18114 MEMB     157      SAPE     H14X     HAL2     0.900000E-01   1.00800           0
     18115 MEMB     157      SAPE     H14Y     HAL2     0.900000E-01   1.00800           0
     18116 MEMB     157      SAPE     C315     CTL2    -0.180000       12.0110           0
     18117 MEMB     157      SAPE     H15X     HAL2     0.900000E-01   1.00800           0
     18118 MEMB     157      SAPE     H15Y     HAL2     0.900000E-01   1.00800           0
     18119 MEMB     157      SAPE     C316     CTL2    -0.180000       12.0110           0
     18120 MEMB     157      SAPE     H16X     HAL2     0.900000E-01   1.00800           0
     18121 MEMB     157      SAPE     H16Y     HAL2     0.900000E-01   1.00800           0
     18122 MEMB     157      SAPE     C317     CTL2    -0.180000       12.0110           0
     18123 MEMB     157      SAPE     H17X     HAL2     0.900000E-01   1.00800           0
     18124 MEMB     157      SAPE     H17Y     HAL2     0.900000E-01   1.00800           0
     18125 MEMB     157      SAPE     C318     CTL3    -0.270000       12.0110           0
     18126 MEMB     157      SAPE     H18X     HAL3     0.900000E-01   1.00800           0
     18127 MEMB     157      SAPE     H18Y     HAL3     0.900000E-01   1.00800           0
     18128 MEMB     157      SAPE     H18Z     HAL3     0.900000E-01   1.00800           0
     18129 MEMB     158      OSM      N        NTL     -0.600000       14.0070           0
     18130 MEMB     158      OSM      C15      CTL5    -0.350000       12.0110           0
     18131 MEMB     158      OSM      H15A     HL       0.250000       1.00800           0
     18132 MEMB     158      OSM      H15B     HL       0.250000       1.00800           0
     18133 MEMB     158      OSM      H15C     HL       0.250000       1.00800           0
     18134 MEMB     158      OSM      C14      CTL5    -0.350000       12.0110           0
     18135 MEMB     158      OSM      H14A     HL       0.250000       1.00800           0
     18136 MEMB     158      OSM      H14B     HL       0.250000       1.00800           0
     18137 MEMB     158      OSM      H14C     HL       0.250000       1.00800           0
     18138 MEMB     158      OSM      C13      CTL5    -0.350000       12.0110           0
     18139 MEMB     158      OSM      H13A     HL       0.250000       1.00800           0
     18140 MEMB     158      OSM      H13B     HL       0.250000       1.00800           0
     18141 MEMB     158      OSM      H13C     HL       0.250000       1.00800           0
     18142 MEMB     158      OSM      C12      CTL2    -0.100000       12.0110           0
     18143 MEMB     158      OSM      H12A     HL       0.250000       1.00800           0
     18144 MEMB     158      OSM      H12B     HL       0.250000       1.00800           0
     18145 MEMB     158      OSM      C11      CTL2    -0.800000E-01   12.0110           0
     18146 MEMB     158      OSM      H11A     HAL2     0.900000E-01   1.00800           0
     18147 MEMB     158      OSM      H11B     HAL2     0.900000E-01   1.00800           0
     18148 MEMB     158      OSM      P        PL        1.50000       30.9740           0
     18149 MEMB     158      OSM      O13      O2L     -0.780000       15.9994           0
     18150 MEMB     158      OSM      O14      O2L     -0.780000       15.9994           0
     18151 MEMB     158      OSM      O11      OSLP    -0.570000       15.9994           0
     18152 MEMB     158      OSM      O12      OSLP    -0.570000       15.9994           0
     18153 MEMB     158      OSM      C1S      CTL2    -0.800000E-01   12.0110           0
     18154 MEMB     158      OSM      H1S      HAL2     0.900000E-01   1.00800           0
     18155 MEMB     158      OSM      H1T      HAL2     0.900000E-01   1.00800           0
     18156 MEMB     158      OSM      NF       NHL     -0.700000       14.0070           0
     18157 MEMB     158      OSM      HNF      H        0.350000       1.00800           0
     18158 MEMB     158      OSM      C2S      CTL1     0.300000       12.0110           0
     18159 MEMB     158      OSM      H2S      HAL1     0.500000E-01   1.00800           0
     18160 MEMB     158      OSM      C3S      CTO1     0.500000       12.0110           0
     18161 MEMB     158      OSM      H3S      HAL1    -0.110000       1.00800           0
     18162 MEMB     158      OSM      O3       OHL     -0.690000       15.9994           0
     18163 MEMB     158      OSM      HO3      HOL      0.300000       1.00800           0
     18164 MEMB     158      OSM      C4S      CEL3    -0.150000       12.0110           0
     18165 MEMB     158      OSM      H4S      HEL1     0.150000       1.00800           0
     18166 MEMB     158      OSM      C5S      CEL3    -0.150000       12.0110           0
     18167 MEMB     158      OSM      H5S      HEL1     0.150000       1.00800           0
     18168 MEMB     158      OSM      C6S      CTL2    -0.180000       12.0110           0
     18169 MEMB     158      OSM      H6S      HAL2     0.900000E-01   1.00800           0
     18170 MEMB     158      OSM      H6T      HAL2     0.900000E-01   1.00800           0
     18171 MEMB     158      OSM      C7S      CTL2    -0.180000       12.0110           0
     18172 MEMB     158      OSM      H7S      HAL2     0.900000E-01   1.00800           0
     18173 MEMB     158      OSM      H7T      HAL2     0.900000E-01   1.00800           0
     18174 MEMB     158      OSM      C8S      CTL2    -0.180000       12.0110           0
     18175 MEMB     158      OSM      H8S      HAL2     0.900000E-01   1.00800           0
     18176 MEMB     158      OSM      H8T      HAL2     0.900000E-01   1.00800           0
     18177 MEMB     158      OSM      C9S      CTL2    -0.180000       12.0110           0
     18178 MEMB     158      OSM      H9S      HAL2     0.900000E-01   1.00800           0
     18179 MEMB     158      OSM      H9T      HAL2     0.900000E-01   1.00800           0
     18180 MEMB     158      OSM      C10S     CTL2    -0.180000       12.0110           0
     18181 MEMB     158      OSM      H10S     HAL2     0.900000E-01   1.00800           0
     18182 MEMB     158      OSM      H10T     HAL2     0.900000E-01   1.00800           0
     18183 MEMB     158      OSM      C11S     CTL2    -0.180000       12.0110           0
     18184 MEMB     158      OSM      H11S     HAL2     0.900000E-01   1.00800           0
     18185 MEMB     158      OSM      H11T     HAL2     0.900000E-01   1.00800           0
     18186 MEMB     158      OSM      C12S     CTL2    -0.180000       12.0110           0
     18187 MEMB     158      OSM      H12S     HAL2     0.900000E-01   1.00800           0
     18188 MEMB     158      OSM      H12T     HAL2     0.900000E-01   1.00800           0
     18189 MEMB     158      OSM      C13S     CTL2    -0.180000       12.0110           0
     18190 MEMB     158      OSM      H13S     HAL2     0.900000E-01   1.00800           0
     18191 MEMB     158      OSM      H13T     HAL2     0.900000E-01   1.00800           0
     18192 MEMB     158      OSM      C14S     CTL2    -0.180000       12.0110           0
     18193 MEMB     158      OSM      H14S     HAL2     0.900000E-01   1.00800           0
     18194 MEMB     158      OSM      H14T     HAL2     0.900000E-01   1.00800           0
     18195 MEMB     158      OSM      C15S     CTL2    -0.180000       12.0110           0
     18196 MEMB     158      OSM      H15S     HAL2     0.900000E-01   1.00800           0
     18197 MEMB     158      OSM      H15T     HAL2     0.900000E-01   1.00800           0
     18198 MEMB     158      OSM      C16S     CTL2    -0.180000       12.0110           0
     18199 MEMB     158      OSM      H16S     HAL2     0.900000E-01   1.00800           0
     18200 MEMB     158      OSM      H16T     HAL2     0.900000E-01   1.00800           0
     18201 MEMB     158      OSM      C17S     CTL2    -0.180000       12.0110           0
     18202 MEMB     158      OSM      H17S     HAL2     0.900000E-01   1.00800           0
     18203 MEMB     158      OSM      H17T     HAL2     0.900000E-01   1.00800           0
     18204 MEMB     158      OSM      C18S     CTL3    -0.270000       12.0110           0
     18205 MEMB     158      OSM      H18S     HAL3     0.900000E-01   1.00800           0
     18206 MEMB     158      OSM      H18T     HAL3     0.900000E-01   1.00800           0
     18207 MEMB     158      OSM      H18U     HAL3     0.900000E-01   1.00800           0
     18208 MEMB     158      OSM      C1F      C        0.550000       12.0110           0
     18209 MEMB     158      OSM      OF       O       -0.600000       15.9994           0
     18210 MEMB     158      OSM      C2F      CTL2    -0.700000E-01   12.0110           0
     18211 MEMB     158      OSM      H2F      HAL2     0.600000E-01   1.00800           0
     18212 MEMB     158      OSM      H2G      HAL2     0.600000E-01   1.00800           0
     18213 MEMB     158      OSM      C3F      CTL2    -0.180000       12.0110           0
     18214 MEMB     158      OSM      H3F      HAL2     0.900000E-01   1.00800           0
     18215 MEMB     158      OSM      H3G      HAL2     0.900000E-01   1.00800           0
     18216 MEMB     158      OSM      C4F      CTL2    -0.180000       12.0110           0
     18217 MEMB     158      OSM      H4F      HAL2     0.900000E-01   1.00800           0
     18218 MEMB     158      OSM      H4G      HAL2     0.900000E-01   1.00800           0
     18219 MEMB     158      OSM      C5F      CTL2    -0.180000       12.0110           0
     18220 MEMB     158      OSM      H5F      HAL2     0.900000E-01   1.00800           0
     18221 MEMB     158      OSM      H5G      HAL2     0.900000E-01   1.00800           0
     18222 MEMB     158      OSM      C6F      CTL2    -0.180000       12.0110           0
     18223 MEMB     158      OSM      H6F      HAL2     0.900000E-01   1.00800           0
     18224 MEMB     158      OSM      H6G      HAL2     0.900000E-01   1.00800           0
     18225 MEMB     158      OSM      C7F      CTL2    -0.180000       12.0110           0
     18226 MEMB     158      OSM      H7F      HAL2     0.900000E-01   1.00800           0
     18227 MEMB     158      OSM      H7G      HAL2     0.900000E-01   1.00800           0
     18228 MEMB     158      OSM      C8F      CTL2    -0.180000       12.0110           0
     18229 MEMB     158      OSM      H8F      HAL2     0.900000E-01   1.00800           0
     18230 MEMB     158      OSM      H8G      HAL2     0.900000E-01   1.00800           0
     18231 MEMB     158      OSM      C9F      CEL1    -0.150000       12.0110           0
     18232 MEMB     158      OSM      H9F      HEL1     0.150000       1.00800           0
     18233 MEMB     158      OSM      C10F     CEL1    -0.150000       12.0110           0
     18234 MEMB     158      OSM      H10F     HEL1     0.150000       1.00800           0
     18235 MEMB     158      OSM      C11F     CTL2    -0.180000       12.0110           0
     18236 MEMB     158      OSM      H11F     HAL2     0.900000E-01   1.00800           0
     18237 MEMB     158      OSM      H11G     HAL2     0.900000E-01   1.00800           0
     18238 MEMB     158      OSM      C12F     CTL2    -0.180000       12.0110           0
     18239 MEMB     158      OSM      H12F     HAL2     0.900000E-01   1.00800           0
     18240 MEMB     158      OSM      H12G     HAL2     0.900000E-01   1.00800           0
     18241 MEMB     158      OSM      C13F     CTL2    -0.180000       12.0110           0
     18242 MEMB     158      OSM      H13F     HAL2     0.900000E-01   1.00800           0
     18243 MEMB     158      OSM      H13G     HAL2     0.900000E-01   1.00800           0
     18244 MEMB     158      OSM      C14F     CTL2    -0.180000       12.0110           0
     18245 MEMB     158      OSM      H14F     HAL2     0.900000E-01   1.00800           0
     18246 MEMB     158      OSM      H14G     HAL2     0.900000E-01   1.00800           0
     18247 MEMB     158      OSM      C15F     CTL2    -0.180000       12.0110           0
     18248 MEMB     158      OSM      H15F     HAL2     0.900000E-01   1.00800           0
     18249 MEMB     158      OSM      H15G     HAL2     0.900000E-01   1.00800           0
     18250 MEMB     158      OSM      C16F     CTL2    -0.180000       12.0110           0
     18251 MEMB     158      OSM      H16F     HAL2     0.900000E-01   1.00800           0
     18252 MEMB     158      OSM      H16G     HAL2     0.900000E-01   1.00800           0
     18253 MEMB     158      OSM      C17F     CTL2    -0.180000       12.0110           0
     18254 MEMB     158      OSM      H17F     HAL2     0.900000E-01   1.00800           0
     18255 MEMB     158      OSM      H17G     HAL2     0.900000E-01   1.00800           0
     18256 MEMB     158      OSM      C18F     CTL3    -0.270000       12.0110           0
     18257 MEMB     158      OSM      H18F     HAL3     0.900000E-01   1.00800           0
     18258 MEMB     158      OSM      H18G     HAL3     0.900000E-01   1.00800           0
     18259 MEMB     158      OSM      H18H     HAL3     0.900000E-01   1.00800           0
     18260 MEMB     159      OSM      N        NTL     -0.600000       14.0070           0
     18261 MEMB     159      OSM      C15      CTL5    -0.350000       12.0110           0
     18262 MEMB     159      OSM      H15A     HL       0.250000       1.00800           0
     18263 MEMB     159      OSM      H15B     HL       0.250000       1.00800           0
     18264 MEMB     159      OSM      H15C     HL       0.250000       1.00800           0
     18265 MEMB     159      OSM      C14      CTL5    -0.350000       12.0110           0
     18266 MEMB     159      OSM      H14A     HL       0.250000       1.00800           0
     18267 MEMB     159      OSM      H14B     HL       0.250000       1.00800           0
     18268 MEMB     159      OSM      H14C     HL       0.250000       1.00800           0
     18269 MEMB     159      OSM      C13      CTL5    -0.350000       12.0110           0
     18270 MEMB     159      OSM      H13A     HL       0.250000       1.00800           0
     18271 MEMB     159      OSM      H13B     HL       0.250000       1.00800           0
     18272 MEMB     159      OSM      H13C     HL       0.250000       1.00800           0
     18273 MEMB     159      OSM      C12      CTL2    -0.100000       12.0110           0
     18274 MEMB     159      OSM      H12A     HL       0.250000       1.00800           0
     18275 MEMB     159      OSM      H12B     HL       0.250000       1.00800           0
     18276 MEMB     159      OSM      C11      CTL2    -0.800000E-01   12.0110           0
     18277 MEMB     159      OSM      H11A     HAL2     0.900000E-01   1.00800           0
     18278 MEMB     159      OSM      H11B     HAL2     0.900000E-01   1.00800           0
     18279 MEMB     159      OSM      P        PL        1.50000       30.9740           0
     18280 MEMB     159      OSM      O13      O2L     -0.780000       15.9994           0
     18281 MEMB     159      OSM      O14      O2L     -0.780000       15.9994           0
     18282 MEMB     159      OSM      O11      OSLP    -0.570000       15.9994           0
     18283 MEMB     159      OSM      O12      OSLP    -0.570000       15.9994           0
     18284 MEMB     159      OSM      C1S      CTL2    -0.800000E-01   12.0110           0
     18285 MEMB     159      OSM      H1S      HAL2     0.900000E-01   1.00800           0
     18286 MEMB     159      OSM      H1T      HAL2     0.900000E-01   1.00800           0
     18287 MEMB     159      OSM      NF       NHL     -0.700000       14.0070           0
     18288 MEMB     159      OSM      HNF      H        0.350000       1.00800           0
     18289 MEMB     159      OSM      C2S      CTL1     0.300000       12.0110           0
     18290 MEMB     159      OSM      H2S      HAL1     0.500000E-01   1.00800           0
     18291 MEMB     159      OSM      C3S      CTO1     0.500000       12.0110           0
     18292 MEMB     159      OSM      H3S      HAL1    -0.110000       1.00800           0
     18293 MEMB     159      OSM      O3       OHL     -0.690000       15.9994           0
     18294 MEMB     159      OSM      HO3      HOL      0.300000       1.00800           0
     18295 MEMB     159      OSM      C4S      CEL3    -0.150000       12.0110           0
     18296 MEMB     159      OSM      H4S      HEL1     0.150000       1.00800           0
     18297 MEMB     159      OSM      C5S      CEL3    -0.150000       12.0110           0
     18298 MEMB     159      OSM      H5S      HEL1     0.150000       1.00800           0
     18299 MEMB     159      OSM      C6S      CTL2    -0.180000       12.0110           0
     18300 MEMB     159      OSM      H6S      HAL2     0.900000E-01   1.00800           0
     18301 MEMB     159      OSM      H6T      HAL2     0.900000E-01   1.00800           0
     18302 MEMB     159      OSM      C7S      CTL2    -0.180000       12.0110           0
     18303 MEMB     159      OSM      H7S      HAL2     0.900000E-01   1.00800           0
     18304 MEMB     159      OSM      H7T      HAL2     0.900000E-01   1.00800           0
     18305 MEMB     159      OSM      C8S      CTL2    -0.180000       12.0110           0
     18306 MEMB     159      OSM      H8S      HAL2     0.900000E-01   1.00800           0
     18307 MEMB     159      OSM      H8T      HAL2     0.900000E-01   1.00800           0
     18308 MEMB     159      OSM      C9S      CTL2    -0.180000       12.0110           0
     18309 MEMB     159      OSM      H9S      HAL2     0.900000E-01   1.00800           0
     18310 MEMB     159      OSM      H9T      HAL2     0.900000E-01   1.00800           0
     18311 MEMB     159      OSM      C10S     CTL2    -0.180000       12.0110           0
     18312 MEMB     159      OSM      H10S     HAL2     0.900000E-01   1.00800           0
     18313 MEMB     159      OSM      H10T     HAL2     0.900000E-01   1.00800           0
     18314 MEMB     159      OSM      C11S     CTL2    -0.180000       12.0110           0
     18315 MEMB     159      OSM      H11S     HAL2     0.900000E-01   1.00800           0
     18316 MEMB     159      OSM      H11T     HAL2     0.900000E-01   1.00800           0
     18317 MEMB     159      OSM      C12S     CTL2    -0.180000       12.0110           0
     18318 MEMB     159      OSM      H12S     HAL2     0.900000E-01   1.00800           0
     18319 MEMB     159      OSM      H12T     HAL2     0.900000E-01   1.00800           0
     18320 MEMB     159      OSM      C13S     CTL2    -0.180000       12.0110           0
     18321 MEMB     159      OSM      H13S     HAL2     0.900000E-01   1.00800           0
     18322 MEMB     159      OSM      H13T     HAL2     0.900000E-01   1.00800           0
     18323 MEMB     159      OSM      C14S     CTL2    -0.180000       12.0110           0
     18324 MEMB     159      OSM      H14S     HAL2     0.900000E-01   1.00800           0
     18325 MEMB     159      OSM      H14T     HAL2     0.900000E-01   1.00800           0
     18326 MEMB     159      OSM      C15S     CTL2    -0.180000       12.0110           0
     18327 MEMB     159      OSM      H15S     HAL2     0.900000E-01   1.00800           0
     18328 MEMB     159      OSM      H15T     HAL2     0.900000E-01   1.00800           0
     18329 MEMB     159      OSM      C16S     CTL2    -0.180000       12.0110           0
     18330 MEMB     159      OSM      H16S     HAL2     0.900000E-01   1.00800           0
     18331 MEMB     159      OSM      H16T     HAL2     0.900000E-01   1.00800           0
     18332 MEMB     159      OSM      C17S     CTL2    -0.180000       12.0110           0
     18333 MEMB     159      OSM      H17S     HAL2     0.900000E-01   1.00800           0
     18334 MEMB     159      OSM      H17T     HAL2     0.900000E-01   1.00800           0
     18335 MEMB     159      OSM      C18S     CTL3    -0.270000       12.0110           0
     18336 MEMB     159      OSM      H18S     HAL3     0.900000E-01   1.00800           0
     18337 MEMB     159      OSM      H18T     HAL3     0.900000E-01   1.00800           0
     18338 MEMB     159      OSM      H18U     HAL3     0.900000E-01   1.00800           0
     18339 MEMB     159      OSM      C1F      C        0.550000       12.0110           0
     18340 MEMB     159      OSM      OF       O       -0.600000       15.9994           0
     18341 MEMB     159      OSM      C2F      CTL2    -0.700000E-01   12.0110           0
     18342 MEMB     159      OSM      H2F      HAL2     0.600000E-01   1.00800           0
     18343 MEMB     159      OSM      H2G      HAL2     0.600000E-01   1.00800           0
     18344 MEMB     159      OSM      C3F      CTL2    -0.180000       12.0110           0
     18345 MEMB     159      OSM      H3F      HAL2     0.900000E-01   1.00800           0
     18346 MEMB     159      OSM      H3G      HAL2     0.900000E-01   1.00800           0
     18347 MEMB     159      OSM      C4F      CTL2    -0.180000       12.0110           0
     18348 MEMB     159      OSM      H4F      HAL2     0.900000E-01   1.00800           0
     18349 MEMB     159      OSM      H4G      HAL2     0.900000E-01   1.00800           0
     18350 MEMB     159      OSM      C5F      CTL2    -0.180000       12.0110           0
     18351 MEMB     159      OSM      H5F      HAL2     0.900000E-01   1.00800           0
     18352 MEMB     159      OSM      H5G      HAL2     0.900000E-01   1.00800           0
     18353 MEMB     159      OSM      C6F      CTL2    -0.180000       12.0110           0
     18354 MEMB     159      OSM      H6F      HAL2     0.900000E-01   1.00800           0
     18355 MEMB     159      OSM      H6G      HAL2     0.900000E-01   1.00800           0
     18356 MEMB     159      OSM      C7F      CTL2    -0.180000       12.0110           0
     18357 MEMB     159      OSM      H7F      HAL2     0.900000E-01   1.00800           0
     18358 MEMB     159      OSM      H7G      HAL2     0.900000E-01   1.00800           0
     18359 MEMB     159      OSM      C8F      CTL2    -0.180000       12.0110           0
     18360 MEMB     159      OSM      H8F      HAL2     0.900000E-01   1.00800           0
     18361 MEMB     159      OSM      H8G      HAL2     0.900000E-01   1.00800           0
     18362 MEMB     159      OSM      C9F      CEL1    -0.150000       12.0110           0
     18363 MEMB     159      OSM      H9F      HEL1     0.150000       1.00800           0
     18364 MEMB     159      OSM      C10F     CEL1    -0.150000       12.0110           0
     18365 MEMB     159      OSM      H10F     HEL1     0.150000       1.00800           0
     18366 MEMB     159      OSM      C11F     CTL2    -0.180000       12.0110           0
     18367 MEMB     159      OSM      H11F     HAL2     0.900000E-01   1.00800           0
     18368 MEMB     159      OSM      H11G     HAL2     0.900000E-01   1.00800           0
     18369 MEMB     159      OSM      C12F     CTL2    -0.180000       12.0110           0
     18370 MEMB     159      OSM      H12F     HAL2     0.900000E-01   1.00800           0
     18371 MEMB     159      OSM      H12G     HAL2     0.900000E-01   1.00800           0
     18372 MEMB     159      OSM      C13F     CTL2    -0.180000       12.0110           0
     18373 MEMB     159      OSM      H13F     HAL2     0.900000E-01   1.00800           0
     18374 MEMB     159      OSM      H13G     HAL2     0.900000E-01   1.00800           0
     18375 MEMB     159      OSM      C14F     CTL2    -0.180000       12.0110           0
     18376 MEMB     159      OSM      H14F     HAL2     0.900000E-01   1.00800           0
     18377 MEMB     159      OSM      H14G     HAL2     0.900000E-01   1.00800           0
     18378 MEMB     159      OSM      C15F     CTL2    -0.180000       12.0110           0
     18379 MEMB     159      OSM      H15F     HAL2     0.900000E-01   1.00800           0
     18380 MEMB     159      OSM      H15G     HAL2     0.900000E-01   1.00800           0
     18381 MEMB     159      OSM      C16F     CTL2    -0.180000       12.0110           0
     18382 MEMB     159      OSM      H16F     HAL2     0.900000E-01   1.00800           0
     18383 MEMB     159      OSM      H16G     HAL2     0.900000E-01   1.00800           0
     18384 MEMB     159      OSM      C17F     CTL2    -0.180000       12.0110           0
     18385 MEMB     159      OSM      H17F     HAL2     0.900000E-01   1.00800           0
     18386 MEMB     159      OSM      H17G     HAL2     0.900000E-01   1.00800           0
     18387 MEMB     159      OSM      C18F     CTL3    -0.270000       12.0110           0
     18388 MEMB     159      OSM      H18F     HAL3     0.900000E-01   1.00800           0
     18389 MEMB     159      OSM      H18G     HAL3     0.900000E-01   1.00800           0
     18390 MEMB     159      OSM      H18H     HAL3     0.900000E-01   1.00800           0
     18391 MEMB     160      SAPE     N        NH3L    -0.300000       14.0070           0
     18392 MEMB     160      SAPE     HN1      HCL      0.330000       1.00800           0
     18393 MEMB     160      SAPE     HN2      HCL      0.330000       1.00800           0
     18394 MEMB     160      SAPE     HN3      HCL      0.330000       1.00800           0
     18395 MEMB     160      SAPE     C12      CTL2     0.130000       12.0110           0
     18396 MEMB     160      SAPE     H12A     HAL2     0.900000E-01   1.00800           0
     18397 MEMB     160      SAPE     H12B     HAL2     0.900000E-01   1.00800           0
     18398 MEMB     160      SAPE     C11      CTL2    -0.800000E-01   12.0110           0
     18399 MEMB     160      SAPE     H11A     HAL2     0.900000E-01   1.00800           0
     18400 MEMB     160      SAPE     H11B     HAL2     0.900000E-01   1.00800           0
     18401 MEMB     160      SAPE     P        PL        1.50000       30.9740           0
     18402 MEMB     160      SAPE     O13      O2L     -0.780000       15.9994           0
     18403 MEMB     160      SAPE     O14      O2L     -0.780000       15.9994           0
     18404 MEMB     160      SAPE     O12      OSLP    -0.570000       15.9994           0
     18405 MEMB     160      SAPE     O11      OSLP    -0.570000       15.9994           0
     18406 MEMB     160      SAPE     C1       CTL2    -0.800000E-01   12.0110           0
     18407 MEMB     160      SAPE     HA       HAL2     0.900000E-01   1.00800           0
     18408 MEMB     160      SAPE     HB       HAL2     0.900000E-01   1.00800           0
     18409 MEMB     160      SAPE     C2       CTL1     0.170000       12.0110           0
     18410 MEMB     160      SAPE     HS       HAL1     0.900000E-01   1.00800           0
     18411 MEMB     160      SAPE     O21      OSL     -0.490000       15.9994           0
     18412 MEMB     160      SAPE     C21      CL       0.900000       12.0110           0
     18413 MEMB     160      SAPE     O22      OBL     -0.630000       15.9994           0
     18414 MEMB     160      SAPE     C22      CTL2    -0.220000       12.0110           0
     18415 MEMB     160      SAPE     H2R      HAL2     0.900000E-01   1.00800           0
     18416 MEMB     160      SAPE     H2S      HAL2     0.900000E-01   1.00800           0
     18417 MEMB     160      SAPE     C3       CTL2     0.800000E-01   12.0110           0
     18418 MEMB     160      SAPE     HX       HAL2     0.900000E-01   1.00800           0
     18419 MEMB     160      SAPE     HY       HAL2     0.900000E-01   1.00800           0
     18420 MEMB     160      SAPE     O31      OSL     -0.490000       15.9994           0
     18421 MEMB     160      SAPE     C31      CL       0.900000       12.0110           0
     18422 MEMB     160      SAPE     O32      OBL     -0.630000       15.9994           0
     18423 MEMB     160      SAPE     C32      CTL2    -0.220000       12.0110           0
     18424 MEMB     160      SAPE     H2X      HAL2     0.900000E-01   1.00800           0
     18425 MEMB     160      SAPE     H2Y      HAL2     0.900000E-01   1.00800           0
     18426 MEMB     160      SAPE     C23      CTL2    -0.180000       12.0110           0
     18427 MEMB     160      SAPE     H3R      HAL2     0.900000E-01   1.00800           0
     18428 MEMB     160      SAPE     H3S      HAL2     0.900000E-01   1.00800           0
     18429 MEMB     160      SAPE     C24      CTL2    -0.180000       12.0110           0
     18430 MEMB     160      SAPE     H4R      HAL2     0.900000E-01   1.00800           0
     18431 MEMB     160      SAPE     H4S      HAL2     0.900000E-01   1.00800           0
     18432 MEMB     160      SAPE     C25      CEL1    -0.150000       12.0110           0
     18433 MEMB     160      SAPE     H5R      HEL1     0.150000       1.00800           0
     18434 MEMB     160      SAPE     C26      CEL1    -0.150000       12.0110           0
     18435 MEMB     160      SAPE     H6R      HEL1     0.150000       1.00800           0
     18436 MEMB     160      SAPE     C27      CTL2    -0.180000       12.0110           0
     18437 MEMB     160      SAPE     H7R      HAL2     0.900000E-01   1.00800           0
     18438 MEMB     160      SAPE     H7S      HAL2     0.900000E-01   1.00800           0
     18439 MEMB     160      SAPE     C28      CEL1    -0.150000       12.0110           0
     18440 MEMB     160      SAPE     H8R      HEL1     0.150000       1.00800           0
     18441 MEMB     160      SAPE     C29      CEL1    -0.150000       12.0110           0
     18442 MEMB     160      SAPE     H9R      HEL1     0.150000       1.00800           0
     18443 MEMB     160      SAPE     C210     CTL2    -0.180000       12.0110           0
     18444 MEMB     160      SAPE     H10R     HAL2     0.900000E-01   1.00800           0
     18445 MEMB     160      SAPE     H10S     HAL2     0.900000E-01   1.00800           0
     18446 MEMB     160      SAPE     C211     CEL1    -0.150000       12.0110           0
     18447 MEMB     160      SAPE     H11R     HEL1     0.150000       1.00800           0
     18448 MEMB     160      SAPE     C212     CEL1    -0.150000       12.0110           0
     18449 MEMB     160      SAPE     H12R     HEL1     0.150000       1.00800           0
     18450 MEMB     160      SAPE     C213     CTL2    -0.180000       12.0110           0
     18451 MEMB     160      SAPE     H13R     HAL2     0.900000E-01   1.00800           0
     18452 MEMB     160      SAPE     H13S     HAL2     0.900000E-01   1.00800           0
     18453 MEMB     160      SAPE     C214     CEL1    -0.150000       12.0110           0
     18454 MEMB     160      SAPE     H14R     HEL1     0.150000       1.00800           0
     18455 MEMB     160      SAPE     C215     CEL1    -0.150000       12.0110           0
     18456 MEMB     160      SAPE     H15R     HEL1     0.150000       1.00800           0
     18457 MEMB     160      SAPE     C216     CTL2    -0.180000       12.0110           0
     18458 MEMB     160      SAPE     H16R     HAL2     0.900000E-01   1.00800           0
     18459 MEMB     160      SAPE     H16S     HAL2     0.900000E-01   1.00800           0
     18460 MEMB     160      SAPE     C217     CTL2    -0.180000       12.0110           0
     18461 MEMB     160      SAPE     H17R     HAL2     0.900000E-01   1.00800           0
     18462 MEMB     160      SAPE     H17S     HAL2     0.900000E-01   1.00800           0
     18463 MEMB     160      SAPE     C218     CTL2    -0.180000       12.0110           0
     18464 MEMB     160      SAPE     H18R     HAL2     0.900000E-01   1.00800           0
     18465 MEMB     160      SAPE     H18S     HAL2     0.900000E-01   1.00800           0
     18466 MEMB     160      SAPE     C219     CTL2    -0.180000       12.0110           0
     18467 MEMB     160      SAPE     H19R     HAL2     0.900000E-01   1.00800           0
     18468 MEMB     160      SAPE     H19S     HAL2     0.900000E-01   1.00800           0
     18469 MEMB     160      SAPE     C220     CTL3    -0.270000       12.0110           0
     18470 MEMB     160      SAPE     H20R     HAL3     0.900000E-01   1.00800           0
     18471 MEMB     160      SAPE     H20S     HAL3     0.900000E-01   1.00800           0
     18472 MEMB     160      SAPE     H20T     HAL3     0.900000E-01   1.00800           0
     18473 MEMB     160      SAPE     C33      CTL2    -0.180000       12.0110           0
     18474 MEMB     160      SAPE     H3X      HAL2     0.900000E-01   1.00800           0
     18475 MEMB     160      SAPE     H3Y      HAL2     0.900000E-01   1.00800           0
     18476 MEMB     160      SAPE     C34      CTL2    -0.180000       12.0110           0
     18477 MEMB     160      SAPE     H4X      HAL2     0.900000E-01   1.00800           0
     18478 MEMB     160      SAPE     H4Y      HAL2     0.900000E-01   1.00800           0
     18479 MEMB     160      SAPE     C35      CTL2    -0.180000       12.0110           0
     18480 MEMB     160      SAPE     H5X      HAL2     0.900000E-01   1.00800           0
     18481 MEMB     160      SAPE     H5Y      HAL2     0.900000E-01   1.00800           0
     18482 MEMB     160      SAPE     C36      CTL2    -0.180000       12.0110           0
     18483 MEMB     160      SAPE     H6X      HAL2     0.900000E-01   1.00800           0
     18484 MEMB     160      SAPE     H6Y      HAL2     0.900000E-01   1.00800           0
     18485 MEMB     160      SAPE     C37      CTL2    -0.180000       12.0110           0
     18486 MEMB     160      SAPE     H7X      HAL2     0.900000E-01   1.00800           0
     18487 MEMB     160      SAPE     H7Y      HAL2     0.900000E-01   1.00800           0
     18488 MEMB     160      SAPE     C38      CTL2    -0.180000       12.0110           0
     18489 MEMB     160      SAPE     H8X      HAL2     0.900000E-01   1.00800           0
     18490 MEMB     160      SAPE     H8Y      HAL2     0.900000E-01   1.00800           0
     18491 MEMB     160      SAPE     C39      CTL2    -0.180000       12.0110           0
     18492 MEMB     160      SAPE     H9X      HAL2     0.900000E-01   1.00800           0
     18493 MEMB     160      SAPE     H9Y      HAL2     0.900000E-01   1.00800           0
     18494 MEMB     160      SAPE     C310     CTL2    -0.180000       12.0110           0
     18495 MEMB     160      SAPE     H10X     HAL2     0.900000E-01   1.00800           0
     18496 MEMB     160      SAPE     H10Y     HAL2     0.900000E-01   1.00800           0
     18497 MEMB     160      SAPE     C311     CTL2    -0.180000       12.0110           0
     18498 MEMB     160      SAPE     H11X     HAL2     0.900000E-01   1.00800           0
     18499 MEMB     160      SAPE     H11Y     HAL2     0.900000E-01   1.00800           0
     18500 MEMB     160      SAPE     C312     CTL2    -0.180000       12.0110           0
     18501 MEMB     160      SAPE     H12X     HAL2     0.900000E-01   1.00800           0
     18502 MEMB     160      SAPE     H12Y     HAL2     0.900000E-01   1.00800           0
     18503 MEMB     160      SAPE     C313     CTL2    -0.180000       12.0110           0
     18504 MEMB     160      SAPE     H13X     HAL2     0.900000E-01   1.00800           0
     18505 MEMB     160      SAPE     H13Y     HAL2     0.900000E-01   1.00800           0
     18506 MEMB     160      SAPE     C314     CTL2    -0.180000       12.0110           0
     18507 MEMB     160      SAPE     H14X     HAL2     0.900000E-01   1.00800           0
     18508 MEMB     160      SAPE     H14Y     HAL2     0.900000E-01   1.00800           0
     18509 MEMB     160      SAPE     C315     CTL2    -0.180000       12.0110           0
     18510 MEMB     160      SAPE     H15X     HAL2     0.900000E-01   1.00800           0
     18511 MEMB     160      SAPE     H15Y     HAL2     0.900000E-01   1.00800           0
     18512 MEMB     160      SAPE     C316     CTL2    -0.180000       12.0110           0
     18513 MEMB     160      SAPE     H16X     HAL2     0.900000E-01   1.00800           0
     18514 MEMB     160      SAPE     H16Y     HAL2     0.900000E-01   1.00800           0
     18515 MEMB     160      SAPE     C317     CTL2    -0.180000       12.0110           0
     18516 MEMB     160      SAPE     H17X     HAL2     0.900000E-01   1.00800           0
     18517 MEMB     160      SAPE     H17Y     HAL2     0.900000E-01   1.00800           0
     18518 MEMB     160      SAPE     C318     CTL3    -0.270000       12.0110           0
     18519 MEMB     160      SAPE     H18X     HAL3     0.900000E-01   1.00800           0
     18520 MEMB     160      SAPE     H18Y     HAL3     0.900000E-01   1.00800           0
     18521 MEMB     160      SAPE     H18Z     HAL3     0.900000E-01   1.00800           0
     18522 MEMB     161      SLPC     N        NTL     -0.600000       14.0070           0
     18523 MEMB     161      SLPC     C13      CTL5    -0.350000       12.0110           0
     18524 MEMB     161      SLPC     H13A     HL       0.250000       1.00800           0
     18525 MEMB     161      SLPC     H13B     HL       0.250000       1.00800           0
     18526 MEMB     161      SLPC     H13C     HL       0.250000       1.00800           0
     18527 MEMB     161      SLPC     C14      CTL5    -0.350000       12.0110           0
     18528 MEMB     161      SLPC     H14A     HL       0.250000       1.00800           0
     18529 MEMB     161      SLPC     H14B     HL       0.250000       1.00800           0
     18530 MEMB     161      SLPC     H14C     HL       0.250000       1.00800           0
     18531 MEMB     161      SLPC     C15      CTL5    -0.350000       12.0110           0
     18532 MEMB     161      SLPC     H15A     HL       0.250000       1.00800           0
     18533 MEMB     161      SLPC     H15B     HL       0.250000       1.00800           0
     18534 MEMB     161      SLPC     H15C     HL       0.250000       1.00800           0
     18535 MEMB     161      SLPC     C12      CTL2    -0.100000       12.0110           0
     18536 MEMB     161      SLPC     H12A     HL       0.250000       1.00800           0
     18537 MEMB     161      SLPC     H12B     HL       0.250000       1.00800           0
     18538 MEMB     161      SLPC     C11      CTL2    -0.800000E-01   12.0110           0
     18539 MEMB     161      SLPC     H11A     HAL2     0.900000E-01   1.00800           0
     18540 MEMB     161      SLPC     H11B     HAL2     0.900000E-01   1.00800           0
     18541 MEMB     161      SLPC     P        PL        1.50000       30.9740           0
     18542 MEMB     161      SLPC     O13      O2L     -0.780000       15.9994           0
     18543 MEMB     161      SLPC     O14      O2L     -0.780000       15.9994           0
     18544 MEMB     161      SLPC     O12      OSLP    -0.570000       15.9994           0
     18545 MEMB     161      SLPC     O11      OSLP    -0.570000       15.9994           0
     18546 MEMB     161      SLPC     C1       CTL2    -0.800000E-01   12.0110           0
     18547 MEMB     161      SLPC     HA       HAL2     0.900000E-01   1.00800           0
     18548 MEMB     161      SLPC     HB       HAL2     0.900000E-01   1.00800           0
     18549 MEMB     161      SLPC     C2       CTL1     0.170000       12.0110           0
     18550 MEMB     161      SLPC     HS       HAL1     0.900000E-01   1.00800           0
     18551 MEMB     161      SLPC     O21      OSL     -0.490000       15.9994           0
     18552 MEMB     161      SLPC     C21      CL       0.900000       12.0110           0
     18553 MEMB     161      SLPC     O22      OBL     -0.630000       15.9994           0
     18554 MEMB     161      SLPC     C22      CTL2    -0.220000       12.0110           0
     18555 MEMB     161      SLPC     H2R      HAL2     0.900000E-01   1.00800           0
     18556 MEMB     161      SLPC     H2S      HAL2     0.900000E-01   1.00800           0
     18557 MEMB     161      SLPC     C3       CTL2     0.800000E-01   12.0110           0
     18558 MEMB     161      SLPC     HX       HAL2     0.900000E-01   1.00800           0
     18559 MEMB     161      SLPC     HY       HAL2     0.900000E-01   1.00800           0
     18560 MEMB     161      SLPC     O31      OSL     -0.490000       15.9994           0
     18561 MEMB     161      SLPC     C31      CL       0.900000       12.0110           0
     18562 MEMB     161      SLPC     O32      OBL     -0.630000       15.9994           0
     18563 MEMB     161      SLPC     C32      CTL2    -0.220000       12.0110           0
     18564 MEMB     161      SLPC     H2X      HAL2     0.900000E-01   1.00800           0
     18565 MEMB     161      SLPC     H2Y      HAL2     0.900000E-01   1.00800           0
     18566 MEMB     161      SLPC     C23      CTL2    -0.180000       12.0110           0
     18567 MEMB     161      SLPC     H3R      HAL2     0.900000E-01   1.00800           0
     18568 MEMB     161      SLPC     H3S      HAL2     0.900000E-01   1.00800           0
     18569 MEMB     161      SLPC     C24      CTL2    -0.180000       12.0110           0
     18570 MEMB     161      SLPC     H4R      HAL2     0.900000E-01   1.00800           0
     18571 MEMB     161      SLPC     H4S      HAL2     0.900000E-01   1.00800           0
     18572 MEMB     161      SLPC     C25      CTL2    -0.180000       12.0110           0
     18573 MEMB     161      SLPC     H5R      HAL2     0.900000E-01   1.00800           0
     18574 MEMB     161      SLPC     H5S      HAL2     0.900000E-01   1.00800           0
     18575 MEMB     161      SLPC     C26      CTL2    -0.180000       12.0110           0
     18576 MEMB     161      SLPC     H6R      HAL2     0.900000E-01   1.00800           0
     18577 MEMB     161      SLPC     H6S      HAL2     0.900000E-01   1.00800           0
     18578 MEMB     161      SLPC     C27      CTL2    -0.180000       12.0110           0
     18579 MEMB     161      SLPC     H7R      HAL2     0.900000E-01   1.00800           0
     18580 MEMB     161      SLPC     H7S      HAL2     0.900000E-01   1.00800           0
     18581 MEMB     161      SLPC     C28      CTL2    -0.180000       12.0110           0
     18582 MEMB     161      SLPC     H8R      HAL2     0.900000E-01   1.00800           0
     18583 MEMB     161      SLPC     H8S      HAL2     0.900000E-01   1.00800           0
     18584 MEMB     161      SLPC     C29      CEL1    -0.150000       12.0110           0
     18585 MEMB     161      SLPC     H9R      HEL1     0.150000       1.00800           0
     18586 MEMB     161      SLPC     C210     CEL1    -0.150000       12.0110           0
     18587 MEMB     161      SLPC     H10R     HEL1     0.150000       1.00800           0
     18588 MEMB     161      SLPC     C211     CTL2    -0.180000       12.0110           0
     18589 MEMB     161      SLPC     H11R     HAL2     0.900000E-01   1.00800           0
     18590 MEMB     161      SLPC     H11S     HAL2     0.900000E-01   1.00800           0
     18591 MEMB     161      SLPC     C212     CEL1    -0.150000       12.0110           0
     18592 MEMB     161      SLPC     H12R     HEL1     0.150000       1.00800           0
     18593 MEMB     161      SLPC     C213     CEL1    -0.150000       12.0110           0
     18594 MEMB     161      SLPC     H13R     HEL1     0.150000       1.00800           0
     18595 MEMB     161      SLPC     C214     CTL2    -0.180000       12.0110           0
     18596 MEMB     161      SLPC     H14R     HAL2     0.900000E-01   1.00800           0
     18597 MEMB     161      SLPC     H14S     HAL2     0.900000E-01   1.00800           0
     18598 MEMB     161      SLPC     C215     CTL2    -0.180000       12.0110           0
     18599 MEMB     161      SLPC     H15R     HAL2     0.900000E-01   1.00800           0
     18600 MEMB     161      SLPC     H15S     HAL2     0.900000E-01   1.00800           0
     18601 MEMB     161      SLPC     C216     CTL2    -0.180000       12.0110           0
     18602 MEMB     161      SLPC     H16R     HAL2     0.900000E-01   1.00800           0
     18603 MEMB     161      SLPC     H16S     HAL2     0.900000E-01   1.00800           0
     18604 MEMB     161      SLPC     C217     CTL2    -0.180000       12.0110           0
     18605 MEMB     161      SLPC     H17R     HAL2     0.900000E-01   1.00800           0
     18606 MEMB     161      SLPC     H17S     HAL2     0.900000E-01   1.00800           0
     18607 MEMB     161      SLPC     C218     CTL3    -0.270000       12.0110           0
     18608 MEMB     161      SLPC     H18R     HAL3     0.900000E-01   1.00800           0
     18609 MEMB     161      SLPC     H18S     HAL3     0.900000E-01   1.00800           0
     18610 MEMB     161      SLPC     H18T     HAL3     0.900000E-01   1.00800           0
     18611 MEMB     161      SLPC     C33      CTL2    -0.180000       12.0110           0
     18612 MEMB     161      SLPC     H3X      HAL2     0.900000E-01   1.00800           0
     18613 MEMB     161      SLPC     H3Y      HAL2     0.900000E-01   1.00800           0
     18614 MEMB     161      SLPC     C34      CTL2    -0.180000       12.0110           0
     18615 MEMB     161      SLPC     H4X      HAL2     0.900000E-01   1.00800           0
     18616 MEMB     161      SLPC     H4Y      HAL2     0.900000E-01   1.00800           0
     18617 MEMB     161      SLPC     C35      CTL2    -0.180000       12.0110           0
     18618 MEMB     161      SLPC     H5X      HAL2     0.900000E-01   1.00800           0
     18619 MEMB     161      SLPC     H5Y      HAL2     0.900000E-01   1.00800           0
     18620 MEMB     161      SLPC     C36      CTL2    -0.180000       12.0110           0
     18621 MEMB     161      SLPC     H6X      HAL2     0.900000E-01   1.00800           0
     18622 MEMB     161      SLPC     H6Y      HAL2     0.900000E-01   1.00800           0
     18623 MEMB     161      SLPC     C37      CTL2    -0.180000       12.0110           0
     18624 MEMB     161      SLPC     H7X      HAL2     0.900000E-01   1.00800           0
     18625 MEMB     161      SLPC     H7Y      HAL2     0.900000E-01   1.00800           0
     18626 MEMB     161      SLPC     C38      CTL2    -0.180000       12.0110           0
     18627 MEMB     161      SLPC     H8X      HAL2     0.900000E-01   1.00800           0
     18628 MEMB     161      SLPC     H8Y      HAL2     0.900000E-01   1.00800           0
     18629 MEMB     161      SLPC     C39      CTL2    -0.180000       12.0110           0
     18630 MEMB     161      SLPC     H9X      HAL2     0.900000E-01   1.00800           0
     18631 MEMB     161      SLPC     H9Y      HAL2     0.900000E-01   1.00800           0
     18632 MEMB     161      SLPC     C310     CTL2    -0.180000       12.0110           0
     18633 MEMB     161      SLPC     H10X     HAL2     0.900000E-01   1.00800           0
     18634 MEMB     161      SLPC     H10Y     HAL2     0.900000E-01   1.00800           0
     18635 MEMB     161      SLPC     C311     CTL2    -0.180000       12.0110           0
     18636 MEMB     161      SLPC     H11X     HAL2     0.900000E-01   1.00800           0
     18637 MEMB     161      SLPC     H11Y     HAL2     0.900000E-01   1.00800           0
     18638 MEMB     161      SLPC     C312     CTL2    -0.180000       12.0110           0
     18639 MEMB     161      SLPC     H12X     HAL2     0.900000E-01   1.00800           0
     18640 MEMB     161      SLPC     H12Y     HAL2     0.900000E-01   1.00800           0
     18641 MEMB     161      SLPC     C313     CTL2    -0.180000       12.0110           0
     18642 MEMB     161      SLPC     H13X     HAL2     0.900000E-01   1.00800           0
     18643 MEMB     161      SLPC     H13Y     HAL2     0.900000E-01   1.00800           0
     18644 MEMB     161      SLPC     C314     CTL2    -0.180000       12.0110           0
     18645 MEMB     161      SLPC     H14X     HAL2     0.900000E-01   1.00800           0
     18646 MEMB     161      SLPC     H14Y     HAL2     0.900000E-01   1.00800           0
     18647 MEMB     161      SLPC     C315     CTL2    -0.180000       12.0110           0
     18648 MEMB     161      SLPC     H15X     HAL2     0.900000E-01   1.00800           0
     18649 MEMB     161      SLPC     H15Y     HAL2     0.900000E-01   1.00800           0
     18650 MEMB     161      SLPC     C316     CTL2    -0.180000       12.0110           0
     18651 MEMB     161      SLPC     H16X     HAL2     0.900000E-01   1.00800           0
     18652 MEMB     161      SLPC     H16Y     HAL2     0.900000E-01   1.00800           0
     18653 MEMB     161      SLPC     C317     CTL2    -0.180000       12.0110           0
     18654 MEMB     161      SLPC     H17X     HAL2     0.900000E-01   1.00800           0
     18655 MEMB     161      SLPC     H17Y     HAL2     0.900000E-01   1.00800           0
     18656 MEMB     161      SLPC     C318     CTL3    -0.270000       12.0110           0
     18657 MEMB     161      SLPC     H18X     HAL3     0.900000E-01   1.00800           0
     18658 MEMB     161      SLPC     H18Y     HAL3     0.900000E-01   1.00800           0
     18659 MEMB     161      SLPC     H18Z     HAL3     0.900000E-01   1.00800           0
     18660 MEMB     162      OSM      N        NTL     -0.600000       14.0070           0
     18661 MEMB     162      OSM      C15      CTL5    -0.350000       12.0110           0
     18662 MEMB     162      OSM      H15A     HL       0.250000       1.00800           0
     18663 MEMB     162      OSM      H15B     HL       0.250000       1.00800           0
     18664 MEMB     162      OSM      H15C     HL       0.250000       1.00800           0
     18665 MEMB     162      OSM      C14      CTL5    -0.350000       12.0110           0
     18666 MEMB     162      OSM      H14A     HL       0.250000       1.00800           0
     18667 MEMB     162      OSM      H14B     HL       0.250000       1.00800           0
     18668 MEMB     162      OSM      H14C     HL       0.250000       1.00800           0
     18669 MEMB     162      OSM      C13      CTL5    -0.350000       12.0110           0
     18670 MEMB     162      OSM      H13A     HL       0.250000       1.00800           0
     18671 MEMB     162      OSM      H13B     HL       0.250000       1.00800           0
     18672 MEMB     162      OSM      H13C     HL       0.250000       1.00800           0
     18673 MEMB     162      OSM      C12      CTL2    -0.100000       12.0110           0
     18674 MEMB     162      OSM      H12A     HL       0.250000       1.00800           0
     18675 MEMB     162      OSM      H12B     HL       0.250000       1.00800           0
     18676 MEMB     162      OSM      C11      CTL2    -0.800000E-01   12.0110           0
     18677 MEMB     162      OSM      H11A     HAL2     0.900000E-01   1.00800           0
     18678 MEMB     162      OSM      H11B     HAL2     0.900000E-01   1.00800           0
     18679 MEMB     162      OSM      P        PL        1.50000       30.9740           0
     18680 MEMB     162      OSM      O13      O2L     -0.780000       15.9994           0
     18681 MEMB     162      OSM      O14      O2L     -0.780000       15.9994           0
     18682 MEMB     162      OSM      O11      OSLP    -0.570000       15.9994           0
     18683 MEMB     162      OSM      O12      OSLP    -0.570000       15.9994           0
     18684 MEMB     162      OSM      C1S      CTL2    -0.800000E-01   12.0110           0
     18685 MEMB     162      OSM      H1S      HAL2     0.900000E-01   1.00800           0
     18686 MEMB     162      OSM      H1T      HAL2     0.900000E-01   1.00800           0
     18687 MEMB     162      OSM      NF       NHL     -0.700000       14.0070           0
     18688 MEMB     162      OSM      HNF      H        0.350000       1.00800           0
     18689 MEMB     162      OSM      C2S      CTL1     0.300000       12.0110           0
     18690 MEMB     162      OSM      H2S      HAL1     0.500000E-01   1.00800           0
     18691 MEMB     162      OSM      C3S      CTO1     0.500000       12.0110           0
     18692 MEMB     162      OSM      H3S      HAL1    -0.110000       1.00800           0
     18693 MEMB     162      OSM      O3       OHL     -0.690000       15.9994           0
     18694 MEMB     162      OSM      HO3      HOL      0.300000       1.00800           0
     18695 MEMB     162      OSM      C4S      CEL3    -0.150000       12.0110           0
     18696 MEMB     162      OSM      H4S      HEL1     0.150000       1.00800           0
     18697 MEMB     162      OSM      C5S      CEL3    -0.150000       12.0110           0
     18698 MEMB     162      OSM      H5S      HEL1     0.150000       1.00800           0
     18699 MEMB     162      OSM      C6S      CTL2    -0.180000       12.0110           0
     18700 MEMB     162      OSM      H6S      HAL2     0.900000E-01   1.00800           0
     18701 MEMB     162      OSM      H6T      HAL2     0.900000E-01   1.00800           0
     18702 MEMB     162      OSM      C7S      CTL2    -0.180000       12.0110           0
     18703 MEMB     162      OSM      H7S      HAL2     0.900000E-01   1.00800           0
     18704 MEMB     162      OSM      H7T      HAL2     0.900000E-01   1.00800           0
     18705 MEMB     162      OSM      C8S      CTL2    -0.180000       12.0110           0
     18706 MEMB     162      OSM      H8S      HAL2     0.900000E-01   1.00800           0
     18707 MEMB     162      OSM      H8T      HAL2     0.900000E-01   1.00800           0
     18708 MEMB     162      OSM      C9S      CTL2    -0.180000       12.0110           0
     18709 MEMB     162      OSM      H9S      HAL2     0.900000E-01   1.00800           0
     18710 MEMB     162      OSM      H9T      HAL2     0.900000E-01   1.00800           0
     18711 MEMB     162      OSM      C10S     CTL2    -0.180000       12.0110           0
     18712 MEMB     162      OSM      H10S     HAL2     0.900000E-01   1.00800           0
     18713 MEMB     162      OSM      H10T     HAL2     0.900000E-01   1.00800           0
     18714 MEMB     162      OSM      C11S     CTL2    -0.180000       12.0110           0
     18715 MEMB     162      OSM      H11S     HAL2     0.900000E-01   1.00800           0
     18716 MEMB     162      OSM      H11T     HAL2     0.900000E-01   1.00800           0
     18717 MEMB     162      OSM      C12S     CTL2    -0.180000       12.0110           0
     18718 MEMB     162      OSM      H12S     HAL2     0.900000E-01   1.00800           0
     18719 MEMB     162      OSM      H12T     HAL2     0.900000E-01   1.00800           0
     18720 MEMB     162      OSM      C13S     CTL2    -0.180000       12.0110           0
     18721 MEMB     162      OSM      H13S     HAL2     0.900000E-01   1.00800           0
     18722 MEMB     162      OSM      H13T     HAL2     0.900000E-01   1.00800           0
     18723 MEMB     162      OSM      C14S     CTL2    -0.180000       12.0110           0
     18724 MEMB     162      OSM      H14S     HAL2     0.900000E-01   1.00800           0
     18725 MEMB     162      OSM      H14T     HAL2     0.900000E-01   1.00800           0
     18726 MEMB     162      OSM      C15S     CTL2    -0.180000       12.0110           0
     18727 MEMB     162      OSM      H15S     HAL2     0.900000E-01   1.00800           0
     18728 MEMB     162      OSM      H15T     HAL2     0.900000E-01   1.00800           0
     18729 MEMB     162      OSM      C16S     CTL2    -0.180000       12.0110           0
     18730 MEMB     162      OSM      H16S     HAL2     0.900000E-01   1.00800           0
     18731 MEMB     162      OSM      H16T     HAL2     0.900000E-01   1.00800           0
     18732 MEMB     162      OSM      C17S     CTL2    -0.180000       12.0110           0
     18733 MEMB     162      OSM      H17S     HAL2     0.900000E-01   1.00800           0
     18734 MEMB     162      OSM      H17T     HAL2     0.900000E-01   1.00800           0
     18735 MEMB     162      OSM      C18S     CTL3    -0.270000       12.0110           0
     18736 MEMB     162      OSM      H18S     HAL3     0.900000E-01   1.00800           0
     18737 MEMB     162      OSM      H18T     HAL3     0.900000E-01   1.00800           0
     18738 MEMB     162      OSM      H18U     HAL3     0.900000E-01   1.00800           0
     18739 MEMB     162      OSM      C1F      C        0.550000       12.0110           0
     18740 MEMB     162      OSM      OF       O       -0.600000       15.9994           0
     18741 MEMB     162      OSM      C2F      CTL2    -0.700000E-01   12.0110           0
     18742 MEMB     162      OSM      H2F      HAL2     0.600000E-01   1.00800           0
     18743 MEMB     162      OSM      H2G      HAL2     0.600000E-01   1.00800           0
     18744 MEMB     162      OSM      C3F      CTL2    -0.180000       12.0110           0
     18745 MEMB     162      OSM      H3F      HAL2     0.900000E-01   1.00800           0
     18746 MEMB     162      OSM      H3G      HAL2     0.900000E-01   1.00800           0
     18747 MEMB     162      OSM      C4F      CTL2    -0.180000       12.0110           0
     18748 MEMB     162      OSM      H4F      HAL2     0.900000E-01   1.00800           0
     18749 MEMB     162      OSM      H4G      HAL2     0.900000E-01   1.00800           0
     18750 MEMB     162      OSM      C5F      CTL2    -0.180000       12.0110           0
     18751 MEMB     162      OSM      H5F      HAL2     0.900000E-01   1.00800           0
     18752 MEMB     162      OSM      H5G      HAL2     0.900000E-01   1.00800           0
     18753 MEMB     162      OSM      C6F      CTL2    -0.180000       12.0110           0
     18754 MEMB     162      OSM      H6F      HAL2     0.900000E-01   1.00800           0
     18755 MEMB     162      OSM      H6G      HAL2     0.900000E-01   1.00800           0
     18756 MEMB     162      OSM      C7F      CTL2    -0.180000       12.0110           0
     18757 MEMB     162      OSM      H7F      HAL2     0.900000E-01   1.00800           0
     18758 MEMB     162      OSM      H7G      HAL2     0.900000E-01   1.00800           0
     18759 MEMB     162      OSM      C8F      CTL2    -0.180000       12.0110           0
     18760 MEMB     162      OSM      H8F      HAL2     0.900000E-01   1.00800           0
     18761 MEMB     162      OSM      H8G      HAL2     0.900000E-01   1.00800           0
     18762 MEMB     162      OSM      C9F      CEL1    -0.150000       12.0110           0
     18763 MEMB     162      OSM      H9F      HEL1     0.150000       1.00800           0
     18764 MEMB     162      OSM      C10F     CEL1    -0.150000       12.0110           0
     18765 MEMB     162      OSM      H10F     HEL1     0.150000       1.00800           0
     18766 MEMB     162      OSM      C11F     CTL2    -0.180000       12.0110           0
     18767 MEMB     162      OSM      H11F     HAL2     0.900000E-01   1.00800           0
     18768 MEMB     162      OSM      H11G     HAL2     0.900000E-01   1.00800           0
     18769 MEMB     162      OSM      C12F     CTL2    -0.180000       12.0110           0
     18770 MEMB     162      OSM      H12F     HAL2     0.900000E-01   1.00800           0
     18771 MEMB     162      OSM      H12G     HAL2     0.900000E-01   1.00800           0
     18772 MEMB     162      OSM      C13F     CTL2    -0.180000       12.0110           0
     18773 MEMB     162      OSM      H13F     HAL2     0.900000E-01   1.00800           0
     18774 MEMB     162      OSM      H13G     HAL2     0.900000E-01   1.00800           0
     18775 MEMB     162      OSM      C14F     CTL2    -0.180000       12.0110           0
     18776 MEMB     162      OSM      H14F     HAL2     0.900000E-01   1.00800           0
     18777 MEMB     162      OSM      H14G     HAL2     0.900000E-01   1.00800           0
     18778 MEMB     162      OSM      C15F     CTL2    -0.180000       12.0110           0
     18779 MEMB     162      OSM      H15F     HAL2     0.900000E-01   1.00800           0
     18780 MEMB     162      OSM      H15G     HAL2     0.900000E-01   1.00800           0
     18781 MEMB     162      OSM      C16F     CTL2    -0.180000       12.0110           0
     18782 MEMB     162      OSM      H16F     HAL2     0.900000E-01   1.00800           0
     18783 MEMB     162      OSM      H16G     HAL2     0.900000E-01   1.00800           0
     18784 MEMB     162      OSM      C17F     CTL2    -0.180000       12.0110           0
     18785 MEMB     162      OSM      H17F     HAL2     0.900000E-01   1.00800           0
     18786 MEMB     162      OSM      H17G     HAL2     0.900000E-01   1.00800           0
     18787 MEMB     162      OSM      C18F     CTL3    -0.270000       12.0110           0
     18788 MEMB     162      OSM      H18F     HAL3     0.900000E-01   1.00800           0
     18789 MEMB     162      OSM      H18G     HAL3     0.900000E-01   1.00800           0
     18790 MEMB     162      OSM      H18H     HAL3     0.900000E-01   1.00800           0
     18791 MEMB     163      OSM      N        NTL     -0.600000       14.0070           0
     18792 MEMB     163      OSM      C15      CTL5    -0.350000       12.0110           0
     18793 MEMB     163      OSM      H15A     HL       0.250000       1.00800           0
     18794 MEMB     163      OSM      H15B     HL       0.250000       1.00800           0
     18795 MEMB     163      OSM      H15C     HL       0.250000       1.00800           0
     18796 MEMB     163      OSM      C14      CTL5    -0.350000       12.0110           0
     18797 MEMB     163      OSM      H14A     HL       0.250000       1.00800           0
     18798 MEMB     163      OSM      H14B     HL       0.250000       1.00800           0
     18799 MEMB     163      OSM      H14C     HL       0.250000       1.00800           0
     18800 MEMB     163      OSM      C13      CTL5    -0.350000       12.0110           0
     18801 MEMB     163      OSM      H13A     HL       0.250000       1.00800           0
     18802 MEMB     163      OSM      H13B     HL       0.250000       1.00800           0
     18803 MEMB     163      OSM      H13C     HL       0.250000       1.00800           0
     18804 MEMB     163      OSM      C12      CTL2    -0.100000       12.0110           0
     18805 MEMB     163      OSM      H12A     HL       0.250000       1.00800           0
     18806 MEMB     163      OSM      H12B     HL       0.250000       1.00800           0
     18807 MEMB     163      OSM      C11      CTL2    -0.800000E-01   12.0110           0
     18808 MEMB     163      OSM      H11A     HAL2     0.900000E-01   1.00800           0
     18809 MEMB     163      OSM      H11B     HAL2     0.900000E-01   1.00800           0
     18810 MEMB     163      OSM      P        PL        1.50000       30.9740           0
     18811 MEMB     163      OSM      O13      O2L     -0.780000       15.9994           0
     18812 MEMB     163      OSM      O14      O2L     -0.780000       15.9994           0
     18813 MEMB     163      OSM      O11      OSLP    -0.570000       15.9994           0
     18814 MEMB     163      OSM      O12      OSLP    -0.570000       15.9994           0
     18815 MEMB     163      OSM      C1S      CTL2    -0.800000E-01   12.0110           0
     18816 MEMB     163      OSM      H1S      HAL2     0.900000E-01   1.00800           0
     18817 MEMB     163      OSM      H1T      HAL2     0.900000E-01   1.00800           0
     18818 MEMB     163      OSM      NF       NHL     -0.700000       14.0070           0
     18819 MEMB     163      OSM      HNF      H        0.350000       1.00800           0
     18820 MEMB     163      OSM      C2S      CTL1     0.300000       12.0110           0
     18821 MEMB     163      OSM      H2S      HAL1     0.500000E-01   1.00800           0
     18822 MEMB     163      OSM      C3S      CTO1     0.500000       12.0110           0
     18823 MEMB     163      OSM      H3S      HAL1    -0.110000       1.00800           0
     18824 MEMB     163      OSM      O3       OHL     -0.690000       15.9994           0
     18825 MEMB     163      OSM      HO3      HOL      0.300000       1.00800           0
     18826 MEMB     163      OSM      C4S      CEL3    -0.150000       12.0110           0
     18827 MEMB     163      OSM      H4S      HEL1     0.150000       1.00800           0
     18828 MEMB     163      OSM      C5S      CEL3    -0.150000       12.0110           0
     18829 MEMB     163      OSM      H5S      HEL1     0.150000       1.00800           0
     18830 MEMB     163      OSM      C6S      CTL2    -0.180000       12.0110           0
     18831 MEMB     163      OSM      H6S      HAL2     0.900000E-01   1.00800           0
     18832 MEMB     163      OSM      H6T      HAL2     0.900000E-01   1.00800           0
     18833 MEMB     163      OSM      C7S      CTL2    -0.180000       12.0110           0
     18834 MEMB     163      OSM      H7S      HAL2     0.900000E-01   1.00800           0
     18835 MEMB     163      OSM      H7T      HAL2     0.900000E-01   1.00800           0
     18836 MEMB     163      OSM      C8S      CTL2    -0.180000       12.0110           0
     18837 MEMB     163      OSM      H8S      HAL2     0.900000E-01   1.00800           0
     18838 MEMB     163      OSM      H8T      HAL2     0.900000E-01   1.00800           0
     18839 MEMB     163      OSM      C9S      CTL2    -0.180000       12.0110           0
     18840 MEMB     163      OSM      H9S      HAL2     0.900000E-01   1.00800           0
     18841 MEMB     163      OSM      H9T      HAL2     0.900000E-01   1.00800           0
     18842 MEMB     163      OSM      C10S     CTL2    -0.180000       12.0110           0
     18843 MEMB     163      OSM      H10S     HAL2     0.900000E-01   1.00800           0
     18844 MEMB     163      OSM      H10T     HAL2     0.900000E-01   1.00800           0
     18845 MEMB     163      OSM      C11S     CTL2    -0.180000       12.0110           0
     18846 MEMB     163      OSM      H11S     HAL2     0.900000E-01   1.00800           0
     18847 MEMB     163      OSM      H11T     HAL2     0.900000E-01   1.00800           0
     18848 MEMB     163      OSM      C12S     CTL2    -0.180000       12.0110           0
     18849 MEMB     163      OSM      H12S     HAL2     0.900000E-01   1.00800           0
     18850 MEMB     163      OSM      H12T     HAL2     0.900000E-01   1.00800           0
     18851 MEMB     163      OSM      C13S     CTL2    -0.180000       12.0110           0
     18852 MEMB     163      OSM      H13S     HAL2     0.900000E-01   1.00800           0
     18853 MEMB     163      OSM      H13T     HAL2     0.900000E-01   1.00800           0
     18854 MEMB     163      OSM      C14S     CTL2    -0.180000       12.0110           0
     18855 MEMB     163      OSM      H14S     HAL2     0.900000E-01   1.00800           0
     18856 MEMB     163      OSM      H14T     HAL2     0.900000E-01   1.00800           0
     18857 MEMB     163      OSM      C15S     CTL2    -0.180000       12.0110           0
     18858 MEMB     163      OSM      H15S     HAL2     0.900000E-01   1.00800           0
     18859 MEMB     163      OSM      H15T     HAL2     0.900000E-01   1.00800           0
     18860 MEMB     163      OSM      C16S     CTL2    -0.180000       12.0110           0
     18861 MEMB     163      OSM      H16S     HAL2     0.900000E-01   1.00800           0
     18862 MEMB     163      OSM      H16T     HAL2     0.900000E-01   1.00800           0
     18863 MEMB     163      OSM      C17S     CTL2    -0.180000       12.0110           0
     18864 MEMB     163      OSM      H17S     HAL2     0.900000E-01   1.00800           0
     18865 MEMB     163      OSM      H17T     HAL2     0.900000E-01   1.00800           0
     18866 MEMB     163      OSM      C18S     CTL3    -0.270000       12.0110           0
     18867 MEMB     163      OSM      H18S     HAL3     0.900000E-01   1.00800           0
     18868 MEMB     163      OSM      H18T     HAL3     0.900000E-01   1.00800           0
     18869 MEMB     163      OSM      H18U     HAL3     0.900000E-01   1.00800           0
     18870 MEMB     163      OSM      C1F      C        0.550000       12.0110           0
     18871 MEMB     163      OSM      OF       O       -0.600000       15.9994           0
     18872 MEMB     163      OSM      C2F      CTL2    -0.700000E-01   12.0110           0
     18873 MEMB     163      OSM      H2F      HAL2     0.600000E-01   1.00800           0
     18874 MEMB     163      OSM      H2G      HAL2     0.600000E-01   1.00800           0
     18875 MEMB     163      OSM      C3F      CTL2    -0.180000       12.0110           0
     18876 MEMB     163      OSM      H3F      HAL2     0.900000E-01   1.00800           0
     18877 MEMB     163      OSM      H3G      HAL2     0.900000E-01   1.00800           0
     18878 MEMB     163      OSM      C4F      CTL2    -0.180000       12.0110           0
     18879 MEMB     163      OSM      H4F      HAL2     0.900000E-01   1.00800           0
     18880 MEMB     163      OSM      H4G      HAL2     0.900000E-01   1.00800           0
     18881 MEMB     163      OSM      C5F      CTL2    -0.180000       12.0110           0
     18882 MEMB     163      OSM      H5F      HAL2     0.900000E-01   1.00800           0
     18883 MEMB     163      OSM      H5G      HAL2     0.900000E-01   1.00800           0
     18884 MEMB     163      OSM      C6F      CTL2    -0.180000       12.0110           0
     18885 MEMB     163      OSM      H6F      HAL2     0.900000E-01   1.00800           0
     18886 MEMB     163      OSM      H6G      HAL2     0.900000E-01   1.00800           0
     18887 MEMB     163      OSM      C7F      CTL2    -0.180000       12.0110           0
     18888 MEMB     163      OSM      H7F      HAL2     0.900000E-01   1.00800           0
     18889 MEMB     163      OSM      H7G      HAL2     0.900000E-01   1.00800           0
     18890 MEMB     163      OSM      C8F      CTL2    -0.180000       12.0110           0
     18891 MEMB     163      OSM      H8F      HAL2     0.900000E-01   1.00800           0
     18892 MEMB     163      OSM      H8G      HAL2     0.900000E-01   1.00800           0
     18893 MEMB     163      OSM      C9F      CEL1    -0.150000       12.0110           0
     18894 MEMB     163      OSM      H9F      HEL1     0.150000       1.00800           0
     18895 MEMB     163      OSM      C10F     CEL1    -0.150000       12.0110           0
     18896 MEMB     163      OSM      H10F     HEL1     0.150000       1.00800           0
     18897 MEMB     163      OSM      C11F     CTL2    -0.180000       12.0110           0
     18898 MEMB     163      OSM      H11F     HAL2     0.900000E-01   1.00800           0
     18899 MEMB     163      OSM      H11G     HAL2     0.900000E-01   1.00800           0
     18900 MEMB     163      OSM      C12F     CTL2    -0.180000       12.0110           0
     18901 MEMB     163      OSM      H12F     HAL2     0.900000E-01   1.00800           0
     18902 MEMB     163      OSM      H12G     HAL2     0.900000E-01   1.00800           0
     18903 MEMB     163      OSM      C13F     CTL2    -0.180000       12.0110           0
     18904 MEMB     163      OSM      H13F     HAL2     0.900000E-01   1.00800           0
     18905 MEMB     163      OSM      H13G     HAL2     0.900000E-01   1.00800           0
     18906 MEMB     163      OSM      C14F     CTL2    -0.180000       12.0110           0
     18907 MEMB     163      OSM      H14F     HAL2     0.900000E-01   1.00800           0
     18908 MEMB     163      OSM      H14G     HAL2     0.900000E-01   1.00800           0
     18909 MEMB     163      OSM      C15F     CTL2    -0.180000       12.0110           0
     18910 MEMB     163      OSM      H15F     HAL2     0.900000E-01   1.00800           0
     18911 MEMB     163      OSM      H15G     HAL2     0.900000E-01   1.00800           0
     18912 MEMB     163      OSM      C16F     CTL2    -0.180000       12.0110           0
     18913 MEMB     163      OSM      H16F     HAL2     0.900000E-01   1.00800           0
     18914 MEMB     163      OSM      H16G     HAL2     0.900000E-01   1.00800           0
     18915 MEMB     163      OSM      C17F     CTL2    -0.180000       12.0110           0
     18916 MEMB     163      OSM      H17F     HAL2     0.900000E-01   1.00800           0
     18917 MEMB     163      OSM      H17G     HAL2     0.900000E-01   1.00800           0
     18918 MEMB     163      OSM      C18F     CTL3    -0.270000       12.0110           0
     18919 MEMB     163      OSM      H18F     HAL3     0.900000E-01   1.00800           0
     18920 MEMB     163      OSM      H18G     HAL3     0.900000E-01   1.00800           0
     18921 MEMB     163      OSM      H18H     HAL3     0.900000E-01   1.00800           0
     18922 MEMB     164      SAPE     N        NH3L    -0.300000       14.0070           0
     18923 MEMB     164      SAPE     HN1      HCL      0.330000       1.00800           0
     18924 MEMB     164      SAPE     HN2      HCL      0.330000       1.00800           0
     18925 MEMB     164      SAPE     HN3      HCL      0.330000       1.00800           0
     18926 MEMB     164      SAPE     C12      CTL2     0.130000       12.0110           0
     18927 MEMB     164      SAPE     H12A     HAL2     0.900000E-01   1.00800           0
     18928 MEMB     164      SAPE     H12B     HAL2     0.900000E-01   1.00800           0
     18929 MEMB     164      SAPE     C11      CTL2    -0.800000E-01   12.0110           0
     18930 MEMB     164      SAPE     H11A     HAL2     0.900000E-01   1.00800           0
     18931 MEMB     164      SAPE     H11B     HAL2     0.900000E-01   1.00800           0
     18932 MEMB     164      SAPE     P        PL        1.50000       30.9740           0
     18933 MEMB     164      SAPE     O13      O2L     -0.780000       15.9994           0
     18934 MEMB     164      SAPE     O14      O2L     -0.780000       15.9994           0
     18935 MEMB     164      SAPE     O12      OSLP    -0.570000       15.9994           0
     18936 MEMB     164      SAPE     O11      OSLP    -0.570000       15.9994           0
     18937 MEMB     164      SAPE     C1       CTL2    -0.800000E-01   12.0110           0
     18938 MEMB     164      SAPE     HA       HAL2     0.900000E-01   1.00800           0
     18939 MEMB     164      SAPE     HB       HAL2     0.900000E-01   1.00800           0
     18940 MEMB     164      SAPE     C2       CTL1     0.170000       12.0110           0
     18941 MEMB     164      SAPE     HS       HAL1     0.900000E-01   1.00800           0
     18942 MEMB     164      SAPE     O21      OSL     -0.490000       15.9994           0
     18943 MEMB     164      SAPE     C21      CL       0.900000       12.0110           0
     18944 MEMB     164      SAPE     O22      OBL     -0.630000       15.9994           0
     18945 MEMB     164      SAPE     C22      CTL2    -0.220000       12.0110           0
     18946 MEMB     164      SAPE     H2R      HAL2     0.900000E-01   1.00800           0
     18947 MEMB     164      SAPE     H2S      HAL2     0.900000E-01   1.00800           0
     18948 MEMB     164      SAPE     C3       CTL2     0.800000E-01   12.0110           0
     18949 MEMB     164      SAPE     HX       HAL2     0.900000E-01   1.00800           0
     18950 MEMB     164      SAPE     HY       HAL2     0.900000E-01   1.00800           0
     18951 MEMB     164      SAPE     O31      OSL     -0.490000       15.9994           0
     18952 MEMB     164      SAPE     C31      CL       0.900000       12.0110           0
     18953 MEMB     164      SAPE     O32      OBL     -0.630000       15.9994           0
     18954 MEMB     164      SAPE     C32      CTL2    -0.220000       12.0110           0
     18955 MEMB     164      SAPE     H2X      HAL2     0.900000E-01   1.00800           0
     18956 MEMB     164      SAPE     H2Y      HAL2     0.900000E-01   1.00800           0
     18957 MEMB     164      SAPE     C23      CTL2    -0.180000       12.0110           0
     18958 MEMB     164      SAPE     H3R      HAL2     0.900000E-01   1.00800           0
     18959 MEMB     164      SAPE     H3S      HAL2     0.900000E-01   1.00800           0
     18960 MEMB     164      SAPE     C24      CTL2    -0.180000       12.0110           0
     18961 MEMB     164      SAPE     H4R      HAL2     0.900000E-01   1.00800           0
     18962 MEMB     164      SAPE     H4S      HAL2     0.900000E-01   1.00800           0
     18963 MEMB     164      SAPE     C25      CEL1    -0.150000       12.0110           0
     18964 MEMB     164      SAPE     H5R      HEL1     0.150000       1.00800           0
     18965 MEMB     164      SAPE     C26      CEL1    -0.150000       12.0110           0
     18966 MEMB     164      SAPE     H6R      HEL1     0.150000       1.00800           0
     18967 MEMB     164      SAPE     C27      CTL2    -0.180000       12.0110           0
     18968 MEMB     164      SAPE     H7R      HAL2     0.900000E-01   1.00800           0
     18969 MEMB     164      SAPE     H7S      HAL2     0.900000E-01   1.00800           0
     18970 MEMB     164      SAPE     C28      CEL1    -0.150000       12.0110           0
     18971 MEMB     164      SAPE     H8R      HEL1     0.150000       1.00800           0
     18972 MEMB     164      SAPE     C29      CEL1    -0.150000       12.0110           0
     18973 MEMB     164      SAPE     H9R      HEL1     0.150000       1.00800           0
     18974 MEMB     164      SAPE     C210     CTL2    -0.180000       12.0110           0
     18975 MEMB     164      SAPE     H10R     HAL2     0.900000E-01   1.00800           0
     18976 MEMB     164      SAPE     H10S     HAL2     0.900000E-01   1.00800           0
     18977 MEMB     164      SAPE     C211     CEL1    -0.150000       12.0110           0
     18978 MEMB     164      SAPE     H11R     HEL1     0.150000       1.00800           0
     18979 MEMB     164      SAPE     C212     CEL1    -0.150000       12.0110           0
     18980 MEMB     164      SAPE     H12R     HEL1     0.150000       1.00800           0
     18981 MEMB     164      SAPE     C213     CTL2    -0.180000       12.0110           0
     18982 MEMB     164      SAPE     H13R     HAL2     0.900000E-01   1.00800           0
     18983 MEMB     164      SAPE     H13S     HAL2     0.900000E-01   1.00800           0
     18984 MEMB     164      SAPE     C214     CEL1    -0.150000       12.0110           0
     18985 MEMB     164      SAPE     H14R     HEL1     0.150000       1.00800           0
     18986 MEMB     164      SAPE     C215     CEL1    -0.150000       12.0110           0
     18987 MEMB     164      SAPE     H15R     HEL1     0.150000       1.00800           0
     18988 MEMB     164      SAPE     C216     CTL2    -0.180000       12.0110           0
     18989 MEMB     164      SAPE     H16R     HAL2     0.900000E-01   1.00800           0
     18990 MEMB     164      SAPE     H16S     HAL2     0.900000E-01   1.00800           0
     18991 MEMB     164      SAPE     C217     CTL2    -0.180000       12.0110           0
     18992 MEMB     164      SAPE     H17R     HAL2     0.900000E-01   1.00800           0
     18993 MEMB     164      SAPE     H17S     HAL2     0.900000E-01   1.00800           0
     18994 MEMB     164      SAPE     C218     CTL2    -0.180000       12.0110           0
     18995 MEMB     164      SAPE     H18R     HAL2     0.900000E-01   1.00800           0
     18996 MEMB     164      SAPE     H18S     HAL2     0.900000E-01   1.00800           0
     18997 MEMB     164      SAPE     C219     CTL2    -0.180000       12.0110           0
     18998 MEMB     164      SAPE     H19R     HAL2     0.900000E-01   1.00800           0
     18999 MEMB     164      SAPE     H19S     HAL2     0.900000E-01   1.00800           0
     19000 MEMB     164      SAPE     C220     CTL3    -0.270000       12.0110           0
     19001 MEMB     164      SAPE     H20R     HAL3     0.900000E-01   1.00800           0
     19002 MEMB     164      SAPE     H20S     HAL3     0.900000E-01   1.00800           0
     19003 MEMB     164      SAPE     H20T     HAL3     0.900000E-01   1.00800           0
     19004 MEMB     164      SAPE     C33      CTL2    -0.180000       12.0110           0
     19005 MEMB     164      SAPE     H3X      HAL2     0.900000E-01   1.00800           0
     19006 MEMB     164      SAPE     H3Y      HAL2     0.900000E-01   1.00800           0
     19007 MEMB     164      SAPE     C34      CTL2    -0.180000       12.0110           0
     19008 MEMB     164      SAPE     H4X      HAL2     0.900000E-01   1.00800           0
     19009 MEMB     164      SAPE     H4Y      HAL2     0.900000E-01   1.00800           0
     19010 MEMB     164      SAPE     C35      CTL2    -0.180000       12.0110           0
     19011 MEMB     164      SAPE     H5X      HAL2     0.900000E-01   1.00800           0
     19012 MEMB     164      SAPE     H5Y      HAL2     0.900000E-01   1.00800           0
     19013 MEMB     164      SAPE     C36      CTL2    -0.180000       12.0110           0
     19014 MEMB     164      SAPE     H6X      HAL2     0.900000E-01   1.00800           0
     19015 MEMB     164      SAPE     H6Y      HAL2     0.900000E-01   1.00800           0
     19016 MEMB     164      SAPE     C37      CTL2    -0.180000       12.0110           0
     19017 MEMB     164      SAPE     H7X      HAL2     0.900000E-01   1.00800           0
     19018 MEMB     164      SAPE     H7Y      HAL2     0.900000E-01   1.00800           0
     19019 MEMB     164      SAPE     C38      CTL2    -0.180000       12.0110           0
     19020 MEMB     164      SAPE     H8X      HAL2     0.900000E-01   1.00800           0
     19021 MEMB     164      SAPE     H8Y      HAL2     0.900000E-01   1.00800           0
     19022 MEMB     164      SAPE     C39      CTL2    -0.180000       12.0110           0
     19023 MEMB     164      SAPE     H9X      HAL2     0.900000E-01   1.00800           0
     19024 MEMB     164      SAPE     H9Y      HAL2     0.900000E-01   1.00800           0
     19025 MEMB     164      SAPE     C310     CTL2    -0.180000       12.0110           0
     19026 MEMB     164      SAPE     H10X     HAL2     0.900000E-01   1.00800           0
     19027 MEMB     164      SAPE     H10Y     HAL2     0.900000E-01   1.00800           0
     19028 MEMB     164      SAPE     C311     CTL2    -0.180000       12.0110           0
     19029 MEMB     164      SAPE     H11X     HAL2     0.900000E-01   1.00800           0
     19030 MEMB     164      SAPE     H11Y     HAL2     0.900000E-01   1.00800           0
     19031 MEMB     164      SAPE     C312     CTL2    -0.180000       12.0110           0
     19032 MEMB     164      SAPE     H12X     HAL2     0.900000E-01   1.00800           0
     19033 MEMB     164      SAPE     H12Y     HAL2     0.900000E-01   1.00800           0
     19034 MEMB     164      SAPE     C313     CTL2    -0.180000       12.0110           0
     19035 MEMB     164      SAPE     H13X     HAL2     0.900000E-01   1.00800           0
     19036 MEMB     164      SAPE     H13Y     HAL2     0.900000E-01   1.00800           0
     19037 MEMB     164      SAPE     C314     CTL2    -0.180000       12.0110           0
     19038 MEMB     164      SAPE     H14X     HAL2     0.900000E-01   1.00800           0
     19039 MEMB     164      SAPE     H14Y     HAL2     0.900000E-01   1.00800           0
     19040 MEMB     164      SAPE     C315     CTL2    -0.180000       12.0110           0
     19041 MEMB     164      SAPE     H15X     HAL2     0.900000E-01   1.00800           0
     19042 MEMB     164      SAPE     H15Y     HAL2     0.900000E-01   1.00800           0
     19043 MEMB     164      SAPE     C316     CTL2    -0.180000       12.0110           0
     19044 MEMB     164      SAPE     H16X     HAL2     0.900000E-01   1.00800           0
     19045 MEMB     164      SAPE     H16Y     HAL2     0.900000E-01   1.00800           0
     19046 MEMB     164      SAPE     C317     CTL2    -0.180000       12.0110           0
     19047 MEMB     164      SAPE     H17X     HAL2     0.900000E-01   1.00800           0
     19048 MEMB     164      SAPE     H17Y     HAL2     0.900000E-01   1.00800           0
     19049 MEMB     164      SAPE     C318     CTL3    -0.270000       12.0110           0
     19050 MEMB     164      SAPE     H18X     HAL3     0.900000E-01   1.00800           0
     19051 MEMB     164      SAPE     H18Y     HAL3     0.900000E-01   1.00800           0
     19052 MEMB     164      SAPE     H18Z     HAL3     0.900000E-01   1.00800           0
     19053 MEMB     165      SAPE     N        NH3L    -0.300000       14.0070           0
     19054 MEMB     165      SAPE     HN1      HCL      0.330000       1.00800           0
     19055 MEMB     165      SAPE     HN2      HCL      0.330000       1.00800           0
     19056 MEMB     165      SAPE     HN3      HCL      0.330000       1.00800           0
     19057 MEMB     165      SAPE     C12      CTL2     0.130000       12.0110           0
     19058 MEMB     165      SAPE     H12A     HAL2     0.900000E-01   1.00800           0
     19059 MEMB     165      SAPE     H12B     HAL2     0.900000E-01   1.00800           0
     19060 MEMB     165      SAPE     C11      CTL2    -0.800000E-01   12.0110           0
     19061 MEMB     165      SAPE     H11A     HAL2     0.900000E-01   1.00800           0
     19062 MEMB     165      SAPE     H11B     HAL2     0.900000E-01   1.00800           0
     19063 MEMB     165      SAPE     P        PL        1.50000       30.9740           0
     19064 MEMB     165      SAPE     O13      O2L     -0.780000       15.9994           0
     19065 MEMB     165      SAPE     O14      O2L     -0.780000       15.9994           0
     19066 MEMB     165      SAPE     O12      OSLP    -0.570000       15.9994           0
     19067 MEMB     165      SAPE     O11      OSLP    -0.570000       15.9994           0
     19068 MEMB     165      SAPE     C1       CTL2    -0.800000E-01   12.0110           0
     19069 MEMB     165      SAPE     HA       HAL2     0.900000E-01   1.00800           0
     19070 MEMB     165      SAPE     HB       HAL2     0.900000E-01   1.00800           0
     19071 MEMB     165      SAPE     C2       CTL1     0.170000       12.0110           0
     19072 MEMB     165      SAPE     HS       HAL1     0.900000E-01   1.00800           0
     19073 MEMB     165      SAPE     O21      OSL     -0.490000       15.9994           0
     19074 MEMB     165      SAPE     C21      CL       0.900000       12.0110           0
     19075 MEMB     165      SAPE     O22      OBL     -0.630000       15.9994           0
     19076 MEMB     165      SAPE     C22      CTL2    -0.220000       12.0110           0
     19077 MEMB     165      SAPE     H2R      HAL2     0.900000E-01   1.00800           0
     19078 MEMB     165      SAPE     H2S      HAL2     0.900000E-01   1.00800           0
     19079 MEMB     165      SAPE     C3       CTL2     0.800000E-01   12.0110           0
     19080 MEMB     165      SAPE     HX       HAL2     0.900000E-01   1.00800           0
     19081 MEMB     165      SAPE     HY       HAL2     0.900000E-01   1.00800           0
     19082 MEMB     165      SAPE     O31      OSL     -0.490000       15.9994           0
     19083 MEMB     165      SAPE     C31      CL       0.900000       12.0110           0
     19084 MEMB     165      SAPE     O32      OBL     -0.630000       15.9994           0
     19085 MEMB     165      SAPE     C32      CTL2    -0.220000       12.0110           0
     19086 MEMB     165      SAPE     H2X      HAL2     0.900000E-01   1.00800           0
     19087 MEMB     165      SAPE     H2Y      HAL2     0.900000E-01   1.00800           0
     19088 MEMB     165      SAPE     C23      CTL2    -0.180000       12.0110           0
     19089 MEMB     165      SAPE     H3R      HAL2     0.900000E-01   1.00800           0
     19090 MEMB     165      SAPE     H3S      HAL2     0.900000E-01   1.00800           0
     19091 MEMB     165      SAPE     C24      CTL2    -0.180000       12.0110           0
     19092 MEMB     165      SAPE     H4R      HAL2     0.900000E-01   1.00800           0
     19093 MEMB     165      SAPE     H4S      HAL2     0.900000E-01   1.00800           0
     19094 MEMB     165      SAPE     C25      CEL1    -0.150000       12.0110           0
     19095 MEMB     165      SAPE     H5R      HEL1     0.150000       1.00800           0
     19096 MEMB     165      SAPE     C26      CEL1    -0.150000       12.0110           0
     19097 MEMB     165      SAPE     H6R      HEL1     0.150000       1.00800           0
     19098 MEMB     165      SAPE     C27      CTL2    -0.180000       12.0110           0
     19099 MEMB     165      SAPE     H7R      HAL2     0.900000E-01   1.00800           0
     19100 MEMB     165      SAPE     H7S      HAL2     0.900000E-01   1.00800           0
     19101 MEMB     165      SAPE     C28      CEL1    -0.150000       12.0110           0
     19102 MEMB     165      SAPE     H8R      HEL1     0.150000       1.00800           0
     19103 MEMB     165      SAPE     C29      CEL1    -0.150000       12.0110           0
     19104 MEMB     165      SAPE     H9R      HEL1     0.150000       1.00800           0
     19105 MEMB     165      SAPE     C210     CTL2    -0.180000       12.0110           0
     19106 MEMB     165      SAPE     H10R     HAL2     0.900000E-01   1.00800           0
     19107 MEMB     165      SAPE     H10S     HAL2     0.900000E-01   1.00800           0
     19108 MEMB     165      SAPE     C211     CEL1    -0.150000       12.0110           0
     19109 MEMB     165      SAPE     H11R     HEL1     0.150000       1.00800           0
     19110 MEMB     165      SAPE     C212     CEL1    -0.150000       12.0110           0
     19111 MEMB     165      SAPE     H12R     HEL1     0.150000       1.00800           0
     19112 MEMB     165      SAPE     C213     CTL2    -0.180000       12.0110           0
     19113 MEMB     165      SAPE     H13R     HAL2     0.900000E-01   1.00800           0
     19114 MEMB     165      SAPE     H13S     HAL2     0.900000E-01   1.00800           0
     19115 MEMB     165      SAPE     C214     CEL1    -0.150000       12.0110           0
     19116 MEMB     165      SAPE     H14R     HEL1     0.150000       1.00800           0
     19117 MEMB     165      SAPE     C215     CEL1    -0.150000       12.0110           0
     19118 MEMB     165      SAPE     H15R     HEL1     0.150000       1.00800           0
     19119 MEMB     165      SAPE     C216     CTL2    -0.180000       12.0110           0
     19120 MEMB     165      SAPE     H16R     HAL2     0.900000E-01   1.00800           0
     19121 MEMB     165      SAPE     H16S     HAL2     0.900000E-01   1.00800           0
     19122 MEMB     165      SAPE     C217     CTL2    -0.180000       12.0110           0
     19123 MEMB     165      SAPE     H17R     HAL2     0.900000E-01   1.00800           0
     19124 MEMB     165      SAPE     H17S     HAL2     0.900000E-01   1.00800           0
     19125 MEMB     165      SAPE     C218     CTL2    -0.180000       12.0110           0
     19126 MEMB     165      SAPE     H18R     HAL2     0.900000E-01   1.00800           0
     19127 MEMB     165      SAPE     H18S     HAL2     0.900000E-01   1.00800           0
     19128 MEMB     165      SAPE     C219     CTL2    -0.180000       12.0110           0
     19129 MEMB     165      SAPE     H19R     HAL2     0.900000E-01   1.00800           0
     19130 MEMB     165      SAPE     H19S     HAL2     0.900000E-01   1.00800           0
     19131 MEMB     165      SAPE     C220     CTL3    -0.270000       12.0110           0
     19132 MEMB     165      SAPE     H20R     HAL3     0.900000E-01   1.00800           0
     19133 MEMB     165      SAPE     H20S     HAL3     0.900000E-01   1.00800           0
     19134 MEMB     165      SAPE     H20T     HAL3     0.900000E-01   1.00800           0
     19135 MEMB     165      SAPE     C33      CTL2    -0.180000       12.0110           0
     19136 MEMB     165      SAPE     H3X      HAL2     0.900000E-01   1.00800           0
     19137 MEMB     165      SAPE     H3Y      HAL2     0.900000E-01   1.00800           0
     19138 MEMB     165      SAPE     C34      CTL2    -0.180000       12.0110           0
     19139 MEMB     165      SAPE     H4X      HAL2     0.900000E-01   1.00800           0
     19140 MEMB     165      SAPE     H4Y      HAL2     0.900000E-01   1.00800           0
     19141 MEMB     165      SAPE     C35      CTL2    -0.180000       12.0110           0
     19142 MEMB     165      SAPE     H5X      HAL2     0.900000E-01   1.00800           0
     19143 MEMB     165      SAPE     H5Y      HAL2     0.900000E-01   1.00800           0
     19144 MEMB     165      SAPE     C36      CTL2    -0.180000       12.0110           0
     19145 MEMB     165      SAPE     H6X      HAL2     0.900000E-01   1.00800           0
     19146 MEMB     165      SAPE     H6Y      HAL2     0.900000E-01   1.00800           0
     19147 MEMB     165      SAPE     C37      CTL2    -0.180000       12.0110           0
     19148 MEMB     165      SAPE     H7X      HAL2     0.900000E-01   1.00800           0
     19149 MEMB     165      SAPE     H7Y      HAL2     0.900000E-01   1.00800           0
     19150 MEMB     165      SAPE     C38      CTL2    -0.180000       12.0110           0
     19151 MEMB     165      SAPE     H8X      HAL2     0.900000E-01   1.00800           0
     19152 MEMB     165      SAPE     H8Y      HAL2     0.900000E-01   1.00800           0
     19153 MEMB     165      SAPE     C39      CTL2    -0.180000       12.0110           0
     19154 MEMB     165      SAPE     H9X      HAL2     0.900000E-01   1.00800           0
     19155 MEMB     165      SAPE     H9Y      HAL2     0.900000E-01   1.00800           0
     19156 MEMB     165      SAPE     C310     CTL2    -0.180000       12.0110           0
     19157 MEMB     165      SAPE     H10X     HAL2     0.900000E-01   1.00800           0
     19158 MEMB     165      SAPE     H10Y     HAL2     0.900000E-01   1.00800           0
     19159 MEMB     165      SAPE     C311     CTL2    -0.180000       12.0110           0
     19160 MEMB     165      SAPE     H11X     HAL2     0.900000E-01   1.00800           0
     19161 MEMB     165      SAPE     H11Y     HAL2     0.900000E-01   1.00800           0
     19162 MEMB     165      SAPE     C312     CTL2    -0.180000       12.0110           0
     19163 MEMB     165      SAPE     H12X     HAL2     0.900000E-01   1.00800           0
     19164 MEMB     165      SAPE     H12Y     HAL2     0.900000E-01   1.00800           0
     19165 MEMB     165      SAPE     C313     CTL2    -0.180000       12.0110           0
     19166 MEMB     165      SAPE     H13X     HAL2     0.900000E-01   1.00800           0
     19167 MEMB     165      SAPE     H13Y     HAL2     0.900000E-01   1.00800           0
     19168 MEMB     165      SAPE     C314     CTL2    -0.180000       12.0110           0
     19169 MEMB     165      SAPE     H14X     HAL2     0.900000E-01   1.00800           0
     19170 MEMB     165      SAPE     H14Y     HAL2     0.900000E-01   1.00800           0
     19171 MEMB     165      SAPE     C315     CTL2    -0.180000       12.0110           0
     19172 MEMB     165      SAPE     H15X     HAL2     0.900000E-01   1.00800           0
     19173 MEMB     165      SAPE     H15Y     HAL2     0.900000E-01   1.00800           0
     19174 MEMB     165      SAPE     C316     CTL2    -0.180000       12.0110           0
     19175 MEMB     165      SAPE     H16X     HAL2     0.900000E-01   1.00800           0
     19176 MEMB     165      SAPE     H16Y     HAL2     0.900000E-01   1.00800           0
     19177 MEMB     165      SAPE     C317     CTL2    -0.180000       12.0110           0
     19178 MEMB     165      SAPE     H17X     HAL2     0.900000E-01   1.00800           0
     19179 MEMB     165      SAPE     H17Y     HAL2     0.900000E-01   1.00800           0
     19180 MEMB     165      SAPE     C318     CTL3    -0.270000       12.0110           0
     19181 MEMB     165      SAPE     H18X     HAL3     0.900000E-01   1.00800           0
     19182 MEMB     165      SAPE     H18Y     HAL3     0.900000E-01   1.00800           0
     19183 MEMB     165      SAPE     H18Z     HAL3     0.900000E-01   1.00800           0
     19184 MEMB     166      SAPC     N        NTL     -0.600000       14.0070           0
     19185 MEMB     166      SAPC     C12      CTL2    -0.100000       12.0110           0
     19186 MEMB     166      SAPC     H12A     HL       0.250000       1.00800           0
     19187 MEMB     166      SAPC     H12B     HL       0.250000       1.00800           0
     19188 MEMB     166      SAPC     C13      CTL5    -0.350000       12.0110           0
     19189 MEMB     166      SAPC     H13A     HL       0.250000       1.00800           0
     19190 MEMB     166      SAPC     H13B     HL       0.250000       1.00800           0
     19191 MEMB     166      SAPC     H13C     HL       0.250000       1.00800           0
     19192 MEMB     166      SAPC     C14      CTL5    -0.350000       12.0110           0
     19193 MEMB     166      SAPC     H14A     HL       0.250000       1.00800           0
     19194 MEMB     166      SAPC     H14B     HL       0.250000       1.00800           0
     19195 MEMB     166      SAPC     H14C     HL       0.250000       1.00800           0
     19196 MEMB     166      SAPC     C15      CTL5    -0.350000       12.0110           0
     19197 MEMB     166      SAPC     H15A     HL       0.250000       1.00800           0
     19198 MEMB     166      SAPC     H15B     HL       0.250000       1.00800           0
     19199 MEMB     166      SAPC     H15C     HL       0.250000       1.00800           0
     19200 MEMB     166      SAPC     C11      CTL2    -0.800000E-01   12.0110           0
     19201 MEMB     166      SAPC     H11A     HAL2     0.900000E-01   1.00800           0
     19202 MEMB     166      SAPC     H11B     HAL2     0.900000E-01   1.00800           0
     19203 MEMB     166      SAPC     P        PL        1.50000       30.9740           0
     19204 MEMB     166      SAPC     O13      O2L     -0.780000       15.9994           0
     19205 MEMB     166      SAPC     O14      O2L     -0.780000       15.9994           0
     19206 MEMB     166      SAPC     O12      OSLP    -0.570000       15.9994           0
     19207 MEMB     166      SAPC     O11      OSLP    -0.570000       15.9994           0
     19208 MEMB     166      SAPC     C1       CTL2    -0.800000E-01   12.0110           0
     19209 MEMB     166      SAPC     HA       HAL2     0.900000E-01   1.00800           0
     19210 MEMB     166      SAPC     HB       HAL2     0.900000E-01   1.00800           0
     19211 MEMB     166      SAPC     C2       CTL1     0.170000       12.0110           0
     19212 MEMB     166      SAPC     HS       HAL1     0.900000E-01   1.00800           0
     19213 MEMB     166      SAPC     O21      OSL     -0.490000       15.9994           0
     19214 MEMB     166      SAPC     C21      CL       0.900000       12.0110           0
     19215 MEMB     166      SAPC     O22      OBL     -0.630000       15.9994           0
     19216 MEMB     166      SAPC     C22      CTL2    -0.220000       12.0110           0
     19217 MEMB     166      SAPC     H2R      HAL2     0.900000E-01   1.00800           0
     19218 MEMB     166      SAPC     H2S      HAL2     0.900000E-01   1.00800           0
     19219 MEMB     166      SAPC     C3       CTL2     0.800000E-01   12.0110           0
     19220 MEMB     166      SAPC     HX       HAL2     0.900000E-01   1.00800           0
     19221 MEMB     166      SAPC     HY       HAL2     0.900000E-01   1.00800           0
     19222 MEMB     166      SAPC     O31      OSL     -0.490000       15.9994           0
     19223 MEMB     166      SAPC     C31      CL       0.900000       12.0110           0
     19224 MEMB     166      SAPC     O32      OBL     -0.630000       15.9994           0
     19225 MEMB     166      SAPC     C32      CTL2    -0.220000       12.0110           0
     19226 MEMB     166      SAPC     H2X      HAL2     0.900000E-01   1.00800           0
     19227 MEMB     166      SAPC     H2Y      HAL2     0.900000E-01   1.00800           0
     19228 MEMB     166      SAPC     C23      CTL2    -0.180000       12.0110           0
     19229 MEMB     166      SAPC     H3R      HAL2     0.900000E-01   1.00800           0
     19230 MEMB     166      SAPC     H3S      HAL2     0.900000E-01   1.00800           0
     19231 MEMB     166      SAPC     C24      CTL2    -0.180000       12.0110           0
     19232 MEMB     166      SAPC     H4R      HAL2     0.900000E-01   1.00800           0
     19233 MEMB     166      SAPC     H4S      HAL2     0.900000E-01   1.00800           0
     19234 MEMB     166      SAPC     C25      CEL1    -0.150000       12.0110           0
     19235 MEMB     166      SAPC     H5R      HEL1     0.150000       1.00800           0
     19236 MEMB     166      SAPC     C26      CEL1    -0.150000       12.0110           0
     19237 MEMB     166      SAPC     H6R      HEL1     0.150000       1.00800           0
     19238 MEMB     166      SAPC     C27      CTL2    -0.180000       12.0110           0
     19239 MEMB     166      SAPC     H7R      HAL2     0.900000E-01   1.00800           0
     19240 MEMB     166      SAPC     H7S      HAL2     0.900000E-01   1.00800           0
     19241 MEMB     166      SAPC     C28      CEL1    -0.150000       12.0110           0
     19242 MEMB     166      SAPC     H8R      HEL1     0.150000       1.00800           0
     19243 MEMB     166      SAPC     C29      CEL1    -0.150000       12.0110           0
     19244 MEMB     166      SAPC     H9R      HEL1     0.150000       1.00800           0
     19245 MEMB     166      SAPC     C210     CTL2    -0.180000       12.0110           0
     19246 MEMB     166      SAPC     H10R     HAL2     0.900000E-01   1.00800           0
     19247 MEMB     166      SAPC     H10S     HAL2     0.900000E-01   1.00800           0
     19248 MEMB     166      SAPC     C211     CEL1    -0.150000       12.0110           0
     19249 MEMB     166      SAPC     H11R     HEL1     0.150000       1.00800           0
     19250 MEMB     166      SAPC     C212     CEL1    -0.150000       12.0110           0
     19251 MEMB     166      SAPC     H12R     HEL1     0.150000       1.00800           0
     19252 MEMB     166      SAPC     C213     CTL2    -0.180000       12.0110           0
     19253 MEMB     166      SAPC     H13R     HAL2     0.900000E-01   1.00800           0
     19254 MEMB     166      SAPC     H13S     HAL2     0.900000E-01   1.00800           0
     19255 MEMB     166      SAPC     C214     CEL1    -0.150000       12.0110           0
     19256 MEMB     166      SAPC     H14R     HEL1     0.150000       1.00800           0
     19257 MEMB     166      SAPC     C215     CEL1    -0.150000       12.0110           0
     19258 MEMB     166      SAPC     H15R     HEL1     0.150000       1.00800           0
     19259 MEMB     166      SAPC     C216     CTL2    -0.180000       12.0110           0
     19260 MEMB     166      SAPC     H16R     HAL2     0.900000E-01   1.00800           0
     19261 MEMB     166      SAPC     H16S     HAL2     0.900000E-01   1.00800           0
     19262 MEMB     166      SAPC     C217     CTL2    -0.180000       12.0110           0
     19263 MEMB     166      SAPC     H17R     HAL2     0.900000E-01   1.00800           0
     19264 MEMB     166      SAPC     H17S     HAL2     0.900000E-01   1.00800           0
     19265 MEMB     166      SAPC     C218     CTL2    -0.270000       12.0110           0
     19266 MEMB     166      SAPC     H18R     HAL2     0.900000E-01   1.00800           0
     19267 MEMB     166      SAPC     H18S     HAL2     0.900000E-01   1.00800           0
     19268 MEMB     166      SAPC     C219     CTL2    -0.180000       12.0110           0
     19269 MEMB     166      SAPC     H19R     HAL2     0.900000E-01   1.00800           0
     19270 MEMB     166      SAPC     H19S     HAL2     0.900000E-01   1.00800           0
     19271 MEMB     166      SAPC     C220     CTL3    -0.180000       12.0110           0
     19272 MEMB     166      SAPC     H20R     HAL3     0.900000E-01   1.00800           0
     19273 MEMB     166      SAPC     H20S     HAL3     0.900000E-01   1.00800           0
     19274 MEMB     166      SAPC     H20T     HAL3     0.900000E-01   1.00800           0
     19275 MEMB     166      SAPC     C33      CTL2    -0.180000       12.0110           0
     19276 MEMB     166      SAPC     H3X      HAL2     0.900000E-01   1.00800           0
     19277 MEMB     166      SAPC     H3Y      HAL2     0.900000E-01   1.00800           0
     19278 MEMB     166      SAPC     C34      CTL2    -0.180000       12.0110           0
     19279 MEMB     166      SAPC     H4X      HAL2     0.900000E-01   1.00800           0
     19280 MEMB     166      SAPC     H4Y      HAL2     0.900000E-01   1.00800           0
     19281 MEMB     166      SAPC     C35      CTL2    -0.180000       12.0110           0
     19282 MEMB     166      SAPC     H5X      HAL2     0.900000E-01   1.00800           0
     19283 MEMB     166      SAPC     H5Y      HAL2     0.900000E-01   1.00800           0
     19284 MEMB     166      SAPC     C36      CTL2    -0.180000       12.0110           0
     19285 MEMB     166      SAPC     H6X      HAL2     0.900000E-01   1.00800           0
     19286 MEMB     166      SAPC     H6Y      HAL2     0.900000E-01   1.00800           0
     19287 MEMB     166      SAPC     C37      CTL2    -0.180000       12.0110           0
     19288 MEMB     166      SAPC     H7X      HAL2     0.900000E-01   1.00800           0
     19289 MEMB     166      SAPC     H7Y      HAL2     0.900000E-01   1.00800           0
     19290 MEMB     166      SAPC     C38      CTL2    -0.180000       12.0110           0
     19291 MEMB     166      SAPC     H8X      HAL2     0.900000E-01   1.00800           0
     19292 MEMB     166      SAPC     H8Y      HAL2     0.900000E-01   1.00800           0
     19293 MEMB     166      SAPC     C39      CTL2    -0.180000       12.0110           0
     19294 MEMB     166      SAPC     H9X      HAL2     0.900000E-01   1.00800           0
     19295 MEMB     166      SAPC     H9Y      HAL2     0.900000E-01   1.00800           0
     19296 MEMB     166      SAPC     C310     CTL2    -0.180000       12.0110           0
     19297 MEMB     166      SAPC     H10X     HAL2     0.900000E-01   1.00800           0
     19298 MEMB     166      SAPC     H10Y     HAL2     0.900000E-01   1.00800           0
     19299 MEMB     166      SAPC     C311     CTL2    -0.180000       12.0110           0
     19300 MEMB     166      SAPC     H11X     HAL2     0.900000E-01   1.00800           0
     19301 MEMB     166      SAPC     H11Y     HAL2     0.900000E-01   1.00800           0
     19302 MEMB     166      SAPC     C312     CTL2    -0.180000       12.0110           0
     19303 MEMB     166      SAPC     H12X     HAL2     0.900000E-01   1.00800           0
     19304 MEMB     166      SAPC     H12Y     HAL2     0.900000E-01   1.00800           0
     19305 MEMB     166      SAPC     C313     CTL2    -0.180000       12.0110           0
     19306 MEMB     166      SAPC     H13X     HAL2     0.900000E-01   1.00800           0
     19307 MEMB     166      SAPC     H13Y     HAL2     0.900000E-01   1.00800           0
     19308 MEMB     166      SAPC     C314     CTL2    -0.180000       12.0110           0
     19309 MEMB     166      SAPC     H14X     HAL2     0.900000E-01   1.00800           0
     19310 MEMB     166      SAPC     H14Y     HAL2     0.900000E-01   1.00800           0
     19311 MEMB     166      SAPC     C315     CTL2    -0.180000       12.0110           0
     19312 MEMB     166      SAPC     H15X     HAL2     0.900000E-01   1.00800           0
     19313 MEMB     166      SAPC     H15Y     HAL2     0.900000E-01   1.00800           0
     19314 MEMB     166      SAPC     C316     CTL2    -0.180000       12.0110           0
     19315 MEMB     166      SAPC     H16X     HAL2     0.900000E-01   1.00800           0
     19316 MEMB     166      SAPC     H16Y     HAL2     0.900000E-01   1.00800           0
     19317 MEMB     166      SAPC     C317     CTL2    -0.180000       12.0110           0
     19318 MEMB     166      SAPC     H17X     HAL2     0.900000E-01   1.00800           0
     19319 MEMB     166      SAPC     H17Y     HAL2     0.900000E-01   1.00800           0
     19320 MEMB     166      SAPC     C318     CTL3    -0.270000       12.0110           0
     19321 MEMB     166      SAPC     H18X     HAL3     0.900000E-01   1.00800           0
     19322 MEMB     166      SAPC     H18Y     HAL3     0.900000E-01   1.00800           0
     19323 MEMB     166      SAPC     H18Z     HAL3     0.900000E-01   1.00800           0
     19324 MEMB     167      SAPC     N        NTL     -0.600000       14.0070           0
     19325 MEMB     167      SAPC     C12      CTL2    -0.100000       12.0110           0
     19326 MEMB     167      SAPC     H12A     HL       0.250000       1.00800           0
     19327 MEMB     167      SAPC     H12B     HL       0.250000       1.00800           0
     19328 MEMB     167      SAPC     C13      CTL5    -0.350000       12.0110           0
     19329 MEMB     167      SAPC     H13A     HL       0.250000       1.00800           0
     19330 MEMB     167      SAPC     H13B     HL       0.250000       1.00800           0
     19331 MEMB     167      SAPC     H13C     HL       0.250000       1.00800           0
     19332 MEMB     167      SAPC     C14      CTL5    -0.350000       12.0110           0
     19333 MEMB     167      SAPC     H14A     HL       0.250000       1.00800           0
     19334 MEMB     167      SAPC     H14B     HL       0.250000       1.00800           0
     19335 MEMB     167      SAPC     H14C     HL       0.250000       1.00800           0
     19336 MEMB     167      SAPC     C15      CTL5    -0.350000       12.0110           0
     19337 MEMB     167      SAPC     H15A     HL       0.250000       1.00800           0
     19338 MEMB     167      SAPC     H15B     HL       0.250000       1.00800           0
     19339 MEMB     167      SAPC     H15C     HL       0.250000       1.00800           0
     19340 MEMB     167      SAPC     C11      CTL2    -0.800000E-01   12.0110           0
     19341 MEMB     167      SAPC     H11A     HAL2     0.900000E-01   1.00800           0
     19342 MEMB     167      SAPC     H11B     HAL2     0.900000E-01   1.00800           0
     19343 MEMB     167      SAPC     P        PL        1.50000       30.9740           0
     19344 MEMB     167      SAPC     O13      O2L     -0.780000       15.9994           0
     19345 MEMB     167      SAPC     O14      O2L     -0.780000       15.9994           0
     19346 MEMB     167      SAPC     O12      OSLP    -0.570000       15.9994           0
     19347 MEMB     167      SAPC     O11      OSLP    -0.570000       15.9994           0
     19348 MEMB     167      SAPC     C1       CTL2    -0.800000E-01   12.0110           0
     19349 MEMB     167      SAPC     HA       HAL2     0.900000E-01   1.00800           0
     19350 MEMB     167      SAPC     HB       HAL2     0.900000E-01   1.00800           0
     19351 MEMB     167      SAPC     C2       CTL1     0.170000       12.0110           0
     19352 MEMB     167      SAPC     HS       HAL1     0.900000E-01   1.00800           0
     19353 MEMB     167      SAPC     O21      OSL     -0.490000       15.9994           0
     19354 MEMB     167      SAPC     C21      CL       0.900000       12.0110           0
     19355 MEMB     167      SAPC     O22      OBL     -0.630000       15.9994           0
     19356 MEMB     167      SAPC     C22      CTL2    -0.220000       12.0110           0
     19357 MEMB     167      SAPC     H2R      HAL2     0.900000E-01   1.00800           0
     19358 MEMB     167      SAPC     H2S      HAL2     0.900000E-01   1.00800           0
     19359 MEMB     167      SAPC     C3       CTL2     0.800000E-01   12.0110           0
     19360 MEMB     167      SAPC     HX       HAL2     0.900000E-01   1.00800           0
     19361 MEMB     167      SAPC     HY       HAL2     0.900000E-01   1.00800           0
     19362 MEMB     167      SAPC     O31      OSL     -0.490000       15.9994           0
     19363 MEMB     167      SAPC     C31      CL       0.900000       12.0110           0
     19364 MEMB     167      SAPC     O32      OBL     -0.630000       15.9994           0
     19365 MEMB     167      SAPC     C32      CTL2    -0.220000       12.0110           0
     19366 MEMB     167      SAPC     H2X      HAL2     0.900000E-01   1.00800           0
     19367 MEMB     167      SAPC     H2Y      HAL2     0.900000E-01   1.00800           0
     19368 MEMB     167      SAPC     C23      CTL2    -0.180000       12.0110           0
     19369 MEMB     167      SAPC     H3R      HAL2     0.900000E-01   1.00800           0
     19370 MEMB     167      SAPC     H3S      HAL2     0.900000E-01   1.00800           0
     19371 MEMB     167      SAPC     C24      CTL2    -0.180000       12.0110           0
     19372 MEMB     167      SAPC     H4R      HAL2     0.900000E-01   1.00800           0
     19373 MEMB     167      SAPC     H4S      HAL2     0.900000E-01   1.00800           0
     19374 MEMB     167      SAPC     C25      CEL1    -0.150000       12.0110           0
     19375 MEMB     167      SAPC     H5R      HEL1     0.150000       1.00800           0
     19376 MEMB     167      SAPC     C26      CEL1    -0.150000       12.0110           0
     19377 MEMB     167      SAPC     H6R      HEL1     0.150000       1.00800           0
     19378 MEMB     167      SAPC     C27      CTL2    -0.180000       12.0110           0
     19379 MEMB     167      SAPC     H7R      HAL2     0.900000E-01   1.00800           0
     19380 MEMB     167      SAPC     H7S      HAL2     0.900000E-01   1.00800           0
     19381 MEMB     167      SAPC     C28      CEL1    -0.150000       12.0110           0
     19382 MEMB     167      SAPC     H8R      HEL1     0.150000       1.00800           0
     19383 MEMB     167      SAPC     C29      CEL1    -0.150000       12.0110           0
     19384 MEMB     167      SAPC     H9R      HEL1     0.150000       1.00800           0
     19385 MEMB     167      SAPC     C210     CTL2    -0.180000       12.0110           0
     19386 MEMB     167      SAPC     H10R     HAL2     0.900000E-01   1.00800           0
     19387 MEMB     167      SAPC     H10S     HAL2     0.900000E-01   1.00800           0
     19388 MEMB     167      SAPC     C211     CEL1    -0.150000       12.0110           0
     19389 MEMB     167      SAPC     H11R     HEL1     0.150000       1.00800           0
     19390 MEMB     167      SAPC     C212     CEL1    -0.150000       12.0110           0
     19391 MEMB     167      SAPC     H12R     HEL1     0.150000       1.00800           0
     19392 MEMB     167      SAPC     C213     CTL2    -0.180000       12.0110           0
     19393 MEMB     167      SAPC     H13R     HAL2     0.900000E-01   1.00800           0
     19394 MEMB     167      SAPC     H13S     HAL2     0.900000E-01   1.00800           0
     19395 MEMB     167      SAPC     C214     CEL1    -0.150000       12.0110           0
     19396 MEMB     167      SAPC     H14R     HEL1     0.150000       1.00800           0
     19397 MEMB     167      SAPC     C215     CEL1    -0.150000       12.0110           0
     19398 MEMB     167      SAPC     H15R     HEL1     0.150000       1.00800           0
     19399 MEMB     167      SAPC     C216     CTL2    -0.180000       12.0110           0
     19400 MEMB     167      SAPC     H16R     HAL2     0.900000E-01   1.00800           0
     19401 MEMB     167      SAPC     H16S     HAL2     0.900000E-01   1.00800           0
     19402 MEMB     167      SAPC     C217     CTL2    -0.180000       12.0110           0
     19403 MEMB     167      SAPC     H17R     HAL2     0.900000E-01   1.00800           0
     19404 MEMB     167      SAPC     H17S     HAL2     0.900000E-01   1.00800           0
     19405 MEMB     167      SAPC     C218     CTL2    -0.270000       12.0110           0
     19406 MEMB     167      SAPC     H18R     HAL2     0.900000E-01   1.00800           0
     19407 MEMB     167      SAPC     H18S     HAL2     0.900000E-01   1.00800           0
     19408 MEMB     167      SAPC     C219     CTL2    -0.180000       12.0110           0
     19409 MEMB     167      SAPC     H19R     HAL2     0.900000E-01   1.00800           0
     19410 MEMB     167      SAPC     H19S     HAL2     0.900000E-01   1.00800           0
     19411 MEMB     167      SAPC     C220     CTL3    -0.180000       12.0110           0
     19412 MEMB     167      SAPC     H20R     HAL3     0.900000E-01   1.00800           0
     19413 MEMB     167      SAPC     H20S     HAL3     0.900000E-01   1.00800           0
     19414 MEMB     167      SAPC     H20T     HAL3     0.900000E-01   1.00800           0
     19415 MEMB     167      SAPC     C33      CTL2    -0.180000       12.0110           0
     19416 MEMB     167      SAPC     H3X      HAL2     0.900000E-01   1.00800           0
     19417 MEMB     167      SAPC     H3Y      HAL2     0.900000E-01   1.00800           0
     19418 MEMB     167      SAPC     C34      CTL2    -0.180000       12.0110           0
     19419 MEMB     167      SAPC     H4X      HAL2     0.900000E-01   1.00800           0
     19420 MEMB     167      SAPC     H4Y      HAL2     0.900000E-01   1.00800           0
     19421 MEMB     167      SAPC     C35      CTL2    -0.180000       12.0110           0
     19422 MEMB     167      SAPC     H5X      HAL2     0.900000E-01   1.00800           0
     19423 MEMB     167      SAPC     H5Y      HAL2     0.900000E-01   1.00800           0
     19424 MEMB     167      SAPC     C36      CTL2    -0.180000       12.0110           0
     19425 MEMB     167      SAPC     H6X      HAL2     0.900000E-01   1.00800           0
     19426 MEMB     167      SAPC     H6Y      HAL2     0.900000E-01   1.00800           0
     19427 MEMB     167      SAPC     C37      CTL2    -0.180000       12.0110           0
     19428 MEMB     167      SAPC     H7X      HAL2     0.900000E-01   1.00800           0
     19429 MEMB     167      SAPC     H7Y      HAL2     0.900000E-01   1.00800           0
     19430 MEMB     167      SAPC     C38      CTL2    -0.180000       12.0110           0
     19431 MEMB     167      SAPC     H8X      HAL2     0.900000E-01   1.00800           0
     19432 MEMB     167      SAPC     H8Y      HAL2     0.900000E-01   1.00800           0
     19433 MEMB     167      SAPC     C39      CTL2    -0.180000       12.0110           0
     19434 MEMB     167      SAPC     H9X      HAL2     0.900000E-01   1.00800           0
     19435 MEMB     167      SAPC     H9Y      HAL2     0.900000E-01   1.00800           0
     19436 MEMB     167      SAPC     C310     CTL2    -0.180000       12.0110           0
     19437 MEMB     167      SAPC     H10X     HAL2     0.900000E-01   1.00800           0
     19438 MEMB     167      SAPC     H10Y     HAL2     0.900000E-01   1.00800           0
     19439 MEMB     167      SAPC     C311     CTL2    -0.180000       12.0110           0
     19440 MEMB     167      SAPC     H11X     HAL2     0.900000E-01   1.00800           0
     19441 MEMB     167      SAPC     H11Y     HAL2     0.900000E-01   1.00800           0
     19442 MEMB     167      SAPC     C312     CTL2    -0.180000       12.0110           0
     19443 MEMB     167      SAPC     H12X     HAL2     0.900000E-01   1.00800           0
     19444 MEMB     167      SAPC     H12Y     HAL2     0.900000E-01   1.00800           0
     19445 MEMB     167      SAPC     C313     CTL2    -0.180000       12.0110           0
     19446 MEMB     167      SAPC     H13X     HAL2     0.900000E-01   1.00800           0
     19447 MEMB     167      SAPC     H13Y     HAL2     0.900000E-01   1.00800           0
     19448 MEMB     167      SAPC     C314     CTL2    -0.180000       12.0110           0
     19449 MEMB     167      SAPC     H14X     HAL2     0.900000E-01   1.00800           0
     19450 MEMB     167      SAPC     H14Y     HAL2     0.900000E-01   1.00800           0
     19451 MEMB     167      SAPC     C315     CTL2    -0.180000       12.0110           0
     19452 MEMB     167      SAPC     H15X     HAL2     0.900000E-01   1.00800           0
     19453 MEMB     167      SAPC     H15Y     HAL2     0.900000E-01   1.00800           0
     19454 MEMB     167      SAPC     C316     CTL2    -0.180000       12.0110           0
     19455 MEMB     167      SAPC     H16X     HAL2     0.900000E-01   1.00800           0
     19456 MEMB     167      SAPC     H16Y     HAL2     0.900000E-01   1.00800           0
     19457 MEMB     167      SAPC     C317     CTL2    -0.180000       12.0110           0
     19458 MEMB     167      SAPC     H17X     HAL2     0.900000E-01   1.00800           0
     19459 MEMB     167      SAPC     H17Y     HAL2     0.900000E-01   1.00800           0
     19460 MEMB     167      SAPC     C318     CTL3    -0.270000       12.0110           0
     19461 MEMB     167      SAPC     H18X     HAL3     0.900000E-01   1.00800           0
     19462 MEMB     167      SAPC     H18Y     HAL3     0.900000E-01   1.00800           0
     19463 MEMB     167      SAPC     H18Z     HAL3     0.900000E-01   1.00800           0
     19464 MEMB     168      SAPS     N        NH3L    -0.300000       14.0070           0
     19465 MEMB     168      SAPS     HN1      HCL      0.330000       1.00800           0
     19466 MEMB     168      SAPS     HN2      HCL      0.330000       1.00800           0
     19467 MEMB     168      SAPS     HN3      HCL      0.330000       1.00800           0
     19468 MEMB     168      SAPS     C12      CTL1     0.210000       12.0110           0
     19469 MEMB     168      SAPS     H12A     HBL      0.100000       1.00800           0
     19470 MEMB     168      SAPS     C13      CCL      0.340000       12.0110           0
     19471 MEMB     168      SAPS     O13A     OCL     -0.670000       15.9994           0
     19472 MEMB     168      SAPS     O13B     OCL     -0.670000       15.9994           0
     19473 MEMB     168      SAPS     C11      CTL2    -0.800000E-01   12.0110           0
     19474 MEMB     168      SAPS     H11A     HAL2     0.900000E-01   1.00800           0
     19475 MEMB     168      SAPS     H11B     HAL2     0.900000E-01   1.00800           0
     19476 MEMB     168      SAPS     P        PL        1.50000       30.9740           0
     19477 MEMB     168      SAPS     O13      O2L     -0.780000       15.9994           0
     19478 MEMB     168      SAPS     O14      O2L     -0.780000       15.9994           0
     19479 MEMB     168      SAPS     O12      OSLP    -0.570000       15.9994           0
     19480 MEMB     168      SAPS     O11      OSLP    -0.570000       15.9994           0
     19481 MEMB     168      SAPS     C1       CTL2    -0.800000E-01   12.0110           0
     19482 MEMB     168      SAPS     HA       HAL2     0.900000E-01   1.00800           0
     19483 MEMB     168      SAPS     HB       HAL2     0.900000E-01   1.00800           0
     19484 MEMB     168      SAPS     C2       CTL1     0.170000       12.0110           0
     19485 MEMB     168      SAPS     HS       HAL1     0.900000E-01   1.00800           0
     19486 MEMB     168      SAPS     O21      OSL     -0.490000       15.9994           0
     19487 MEMB     168      SAPS     C21      CL       0.900000       12.0110           0
     19488 MEMB     168      SAPS     O22      OBL     -0.630000       15.9994           0
     19489 MEMB     168      SAPS     C22      CTL2    -0.220000       12.0110           0
     19490 MEMB     168      SAPS     H2R      HAL2     0.900000E-01   1.00800           0
     19491 MEMB     168      SAPS     H2S      HAL2     0.900000E-01   1.00800           0
     19492 MEMB     168      SAPS     C3       CTL2     0.800000E-01   12.0110           0
     19493 MEMB     168      SAPS     HX       HAL2     0.900000E-01   1.00800           0
     19494 MEMB     168      SAPS     HY       HAL2     0.900000E-01   1.00800           0
     19495 MEMB     168      SAPS     O31      OSL     -0.490000       15.9994           0
     19496 MEMB     168      SAPS     C31      CL       0.900000       12.0110           0
     19497 MEMB     168      SAPS     O32      OBL     -0.630000       15.9994           0
     19498 MEMB     168      SAPS     C32      CTL2    -0.220000       12.0110           0
     19499 MEMB     168      SAPS     H2X      HAL2     0.900000E-01   1.00800           0
     19500 MEMB     168      SAPS     H2Y      HAL2     0.900000E-01   1.00800           0
     19501 MEMB     168      SAPS     C23      CTL2    -0.180000       12.0110           0
     19502 MEMB     168      SAPS     H3R      HAL2     0.900000E-01   1.00800           0
     19503 MEMB     168      SAPS     H3S      HAL2     0.900000E-01   1.00800           0
     19504 MEMB     168      SAPS     C24      CTL2    -0.180000       12.0110           0
     19505 MEMB     168      SAPS     H4R      HAL2     0.900000E-01   1.00800           0
     19506 MEMB     168      SAPS     H4S      HAL2     0.900000E-01   1.00800           0
     19507 MEMB     168      SAPS     C25      CEL1    -0.150000       12.0110           0
     19508 MEMB     168      SAPS     H5R      HEL1     0.150000       1.00800           0
     19509 MEMB     168      SAPS     C26      CEL1    -0.150000       12.0110           0
     19510 MEMB     168      SAPS     H6R      HEL1     0.150000       1.00800           0
     19511 MEMB     168      SAPS     C27      CTL2    -0.180000       12.0110           0
     19512 MEMB     168      SAPS     H7R      HAL2     0.900000E-01   1.00800           0
     19513 MEMB     168      SAPS     H7S      HAL2     0.900000E-01   1.00800           0
     19514 MEMB     168      SAPS     C28      CEL1    -0.150000       12.0110           0
     19515 MEMB     168      SAPS     H8R      HEL1     0.150000       1.00800           0
     19516 MEMB     168      SAPS     C29      CEL1    -0.150000       12.0110           0
     19517 MEMB     168      SAPS     H9R      HEL1     0.150000       1.00800           0
     19518 MEMB     168      SAPS     C210     CTL2    -0.180000       12.0110           0
     19519 MEMB     168      SAPS     H10R     HAL2     0.900000E-01   1.00800           0
     19520 MEMB     168      SAPS     H10S     HAL2     0.900000E-01   1.00800           0
     19521 MEMB     168      SAPS     C211     CEL1    -0.150000       12.0110           0
     19522 MEMB     168      SAPS     H11R     HEL1     0.150000       1.00800           0
     19523 MEMB     168      SAPS     C212     CEL1    -0.150000       12.0110           0
     19524 MEMB     168      SAPS     H12R     HEL1     0.150000       1.00800           0
     19525 MEMB     168      SAPS     C213     CTL2    -0.180000       12.0110           0
     19526 MEMB     168      SAPS     H13R     HAL2     0.900000E-01   1.00800           0
     19527 MEMB     168      SAPS     H13S     HAL2     0.900000E-01   1.00800           0
     19528 MEMB     168      SAPS     C214     CEL1    -0.150000       12.0110           0
     19529 MEMB     168      SAPS     H14R     HEL1     0.150000       1.00800           0
     19530 MEMB     168      SAPS     C215     CEL1    -0.150000       12.0110           0
     19531 MEMB     168      SAPS     H15R     HEL1     0.150000       1.00800           0
     19532 MEMB     168      SAPS     C216     CTL2    -0.180000       12.0110           0
     19533 MEMB     168      SAPS     H16R     HAL2     0.900000E-01   1.00800           0
     19534 MEMB     168      SAPS     H16S     HAL2     0.900000E-01   1.00800           0
     19535 MEMB     168      SAPS     C217     CTL2    -0.180000       12.0110           0
     19536 MEMB     168      SAPS     H17R     HAL2     0.900000E-01   1.00800           0
     19537 MEMB     168      SAPS     H17S     HAL2     0.900000E-01   1.00800           0
     19538 MEMB     168      SAPS     C218     CTL2    -0.180000       12.0110           0
     19539 MEMB     168      SAPS     H18R     HAL2     0.900000E-01   1.00800           0
     19540 MEMB     168      SAPS     H18S     HAL2     0.900000E-01   1.00800           0
     19541 MEMB     168      SAPS     C219     CTL2    -0.180000       12.0110           0
     19542 MEMB     168      SAPS     H19R     HAL2     0.900000E-01   1.00800           0
     19543 MEMB     168      SAPS     H19S     HAL2     0.900000E-01   1.00800           0
     19544 MEMB     168      SAPS     C220     CTL3    -0.270000       12.0110           0
     19545 MEMB     168      SAPS     H20R     HAL3     0.900000E-01   1.00800           0
     19546 MEMB     168      SAPS     H20S     HAL3     0.900000E-01   1.00800           0
     19547 MEMB     168      SAPS     H20T     HAL3     0.900000E-01   1.00800           0
     19548 MEMB     168      SAPS     C33      CTL2    -0.180000       12.0110           0
     19549 MEMB     168      SAPS     H3X      HAL2     0.900000E-01   1.00800           0
     19550 MEMB     168      SAPS     H3Y      HAL2     0.900000E-01   1.00800           0
     19551 MEMB     168      SAPS     C34      CTL2    -0.180000       12.0110           0
     19552 MEMB     168      SAPS     H4X      HAL2     0.900000E-01   1.00800           0
     19553 MEMB     168      SAPS     H4Y      HAL2     0.900000E-01   1.00800           0
     19554 MEMB     168      SAPS     C35      CTL2    -0.180000       12.0110           0
     19555 MEMB     168      SAPS     H5X      HAL2     0.900000E-01   1.00800           0
     19556 MEMB     168      SAPS     H5Y      HAL2     0.900000E-01   1.00800           0
     19557 MEMB     168      SAPS     C36      CTL2    -0.180000       12.0110           0
     19558 MEMB     168      SAPS     H6X      HAL2     0.900000E-01   1.00800           0
     19559 MEMB     168      SAPS     H6Y      HAL2     0.900000E-01   1.00800           0
     19560 MEMB     168      SAPS     C37      CTL2    -0.180000       12.0110           0
     19561 MEMB     168      SAPS     H7X      HAL2     0.900000E-01   1.00800           0
     19562 MEMB     168      SAPS     H7Y      HAL2     0.900000E-01   1.00800           0
     19563 MEMB     168      SAPS     C38      CTL2    -0.180000       12.0110           0
     19564 MEMB     168      SAPS     H8X      HAL2     0.900000E-01   1.00800           0
     19565 MEMB     168      SAPS     H8Y      HAL2     0.900000E-01   1.00800           0
     19566 MEMB     168      SAPS     C39      CTL2    -0.180000       12.0110           0
     19567 MEMB     168      SAPS     H9X      HAL2     0.900000E-01   1.00800           0
     19568 MEMB     168      SAPS     H9Y      HAL2     0.900000E-01   1.00800           0
     19569 MEMB     168      SAPS     C310     CTL2    -0.180000       12.0110           0
     19570 MEMB     168      SAPS     H10X     HAL2     0.900000E-01   1.00800           0
     19571 MEMB     168      SAPS     H10Y     HAL2     0.900000E-01   1.00800           0
     19572 MEMB     168      SAPS     C311     CTL2    -0.180000       12.0110           0
     19573 MEMB     168      SAPS     H11X     HAL2     0.900000E-01   1.00800           0
     19574 MEMB     168      SAPS     H11Y     HAL2     0.900000E-01   1.00800           0
     19575 MEMB     168      SAPS     C312     CTL2    -0.180000       12.0110           0
     19576 MEMB     168      SAPS     H12X     HAL2     0.900000E-01   1.00800           0
     19577 MEMB     168      SAPS     H12Y     HAL2     0.900000E-01   1.00800           0
     19578 MEMB     168      SAPS     C313     CTL2    -0.180000       12.0110           0
     19579 MEMB     168      SAPS     H13X     HAL2     0.900000E-01   1.00800           0
     19580 MEMB     168      SAPS     H13Y     HAL2     0.900000E-01   1.00800           0
     19581 MEMB     168      SAPS     C314     CTL2    -0.180000       12.0110           0
     19582 MEMB     168      SAPS     H14X     HAL2     0.900000E-01   1.00800           0
     19583 MEMB     168      SAPS     H14Y     HAL2     0.900000E-01   1.00800           0
     19584 MEMB     168      SAPS     C315     CTL2    -0.180000       12.0110           0
     19585 MEMB     168      SAPS     H15X     HAL2     0.900000E-01   1.00800           0
     19586 MEMB     168      SAPS     H15Y     HAL2     0.900000E-01   1.00800           0
     19587 MEMB     168      SAPS     C316     CTL2    -0.180000       12.0110           0
     19588 MEMB     168      SAPS     H16X     HAL2     0.900000E-01   1.00800           0
     19589 MEMB     168      SAPS     H16Y     HAL2     0.900000E-01   1.00800           0
     19590 MEMB     168      SAPS     C317     CTL2    -0.180000       12.0110           0
     19591 MEMB     168      SAPS     H17X     HAL2     0.900000E-01   1.00800           0
     19592 MEMB     168      SAPS     H17Y     HAL2     0.900000E-01   1.00800           0
     19593 MEMB     168      SAPS     C318     CTL3    -0.270000       12.0110           0
     19594 MEMB     168      SAPS     H18X     HAL3     0.900000E-01   1.00800           0
     19595 MEMB     168      SAPS     H18Y     HAL3     0.900000E-01   1.00800           0
     19596 MEMB     168      SAPS     H18Z     HAL3     0.900000E-01   1.00800           0
     19597 MEMB     169      OSM      N        NTL     -0.600000       14.0070           0
     19598 MEMB     169      OSM      C15      CTL5    -0.350000       12.0110           0
     19599 MEMB     169      OSM      H15A     HL       0.250000       1.00800           0
     19600 MEMB     169      OSM      H15B     HL       0.250000       1.00800           0
     19601 MEMB     169      OSM      H15C     HL       0.250000       1.00800           0
     19602 MEMB     169      OSM      C14      CTL5    -0.350000       12.0110           0
     19603 MEMB     169      OSM      H14A     HL       0.250000       1.00800           0
     19604 MEMB     169      OSM      H14B     HL       0.250000       1.00800           0
     19605 MEMB     169      OSM      H14C     HL       0.250000       1.00800           0
     19606 MEMB     169      OSM      C13      CTL5    -0.350000       12.0110           0
     19607 MEMB     169      OSM      H13A     HL       0.250000       1.00800           0
     19608 MEMB     169      OSM      H13B     HL       0.250000       1.00800           0
     19609 MEMB     169      OSM      H13C     HL       0.250000       1.00800           0
     19610 MEMB     169      OSM      C12      CTL2    -0.100000       12.0110           0
     19611 MEMB     169      OSM      H12A     HL       0.250000       1.00800           0
     19612 MEMB     169      OSM      H12B     HL       0.250000       1.00800           0
     19613 MEMB     169      OSM      C11      CTL2    -0.800000E-01   12.0110           0
     19614 MEMB     169      OSM      H11A     HAL2     0.900000E-01   1.00800           0
     19615 MEMB     169      OSM      H11B     HAL2     0.900000E-01   1.00800           0
     19616 MEMB     169      OSM      P        PL        1.50000       30.9740           0
     19617 MEMB     169      OSM      O13      O2L     -0.780000       15.9994           0
     19618 MEMB     169      OSM      O14      O2L     -0.780000       15.9994           0
     19619 MEMB     169      OSM      O11      OSLP    -0.570000       15.9994           0
     19620 MEMB     169      OSM      O12      OSLP    -0.570000       15.9994           0
     19621 MEMB     169      OSM      C1S      CTL2    -0.800000E-01   12.0110           0
     19622 MEMB     169      OSM      H1S      HAL2     0.900000E-01   1.00800           0
     19623 MEMB     169      OSM      H1T      HAL2     0.900000E-01   1.00800           0
     19624 MEMB     169      OSM      NF       NHL     -0.700000       14.0070           0
     19625 MEMB     169      OSM      HNF      H        0.350000       1.00800           0
     19626 MEMB     169      OSM      C2S      CTL1     0.300000       12.0110           0
     19627 MEMB     169      OSM      H2S      HAL1     0.500000E-01   1.00800           0
     19628 MEMB     169      OSM      C3S      CTO1     0.500000       12.0110           0
     19629 MEMB     169      OSM      H3S      HAL1    -0.110000       1.00800           0
     19630 MEMB     169      OSM      O3       OHL     -0.690000       15.9994           0
     19631 MEMB     169      OSM      HO3      HOL      0.300000       1.00800           0
     19632 MEMB     169      OSM      C4S      CEL3    -0.150000       12.0110           0
     19633 MEMB     169      OSM      H4S      HEL1     0.150000       1.00800           0
     19634 MEMB     169      OSM      C5S      CEL3    -0.150000       12.0110           0
     19635 MEMB     169      OSM      H5S      HEL1     0.150000       1.00800           0
     19636 MEMB     169      OSM      C6S      CTL2    -0.180000       12.0110           0
     19637 MEMB     169      OSM      H6S      HAL2     0.900000E-01   1.00800           0
     19638 MEMB     169      OSM      H6T      HAL2     0.900000E-01   1.00800           0
     19639 MEMB     169      OSM      C7S      CTL2    -0.180000       12.0110           0
     19640 MEMB     169      OSM      H7S      HAL2     0.900000E-01   1.00800           0
     19641 MEMB     169      OSM      H7T      HAL2     0.900000E-01   1.00800           0
     19642 MEMB     169      OSM      C8S      CTL2    -0.180000       12.0110           0
     19643 MEMB     169      OSM      H8S      HAL2     0.900000E-01   1.00800           0
     19644 MEMB     169      OSM      H8T      HAL2     0.900000E-01   1.00800           0
     19645 MEMB     169      OSM      C9S      CTL2    -0.180000       12.0110           0
     19646 MEMB     169      OSM      H9S      HAL2     0.900000E-01   1.00800           0
     19647 MEMB     169      OSM      H9T      HAL2     0.900000E-01   1.00800           0
     19648 MEMB     169      OSM      C10S     CTL2    -0.180000       12.0110           0
     19649 MEMB     169      OSM      H10S     HAL2     0.900000E-01   1.00800           0
     19650 MEMB     169      OSM      H10T     HAL2     0.900000E-01   1.00800           0
     19651 MEMB     169      OSM      C11S     CTL2    -0.180000       12.0110           0
     19652 MEMB     169      OSM      H11S     HAL2     0.900000E-01   1.00800           0
     19653 MEMB     169      OSM      H11T     HAL2     0.900000E-01   1.00800           0
     19654 MEMB     169      OSM      C12S     CTL2    -0.180000       12.0110           0
     19655 MEMB     169      OSM      H12S     HAL2     0.900000E-01   1.00800           0
     19656 MEMB     169      OSM      H12T     HAL2     0.900000E-01   1.00800           0
     19657 MEMB     169      OSM      C13S     CTL2    -0.180000       12.0110           0
     19658 MEMB     169      OSM      H13S     HAL2     0.900000E-01   1.00800           0
     19659 MEMB     169      OSM      H13T     HAL2     0.900000E-01   1.00800           0
     19660 MEMB     169      OSM      C14S     CTL2    -0.180000       12.0110           0
     19661 MEMB     169      OSM      H14S     HAL2     0.900000E-01   1.00800           0
     19662 MEMB     169      OSM      H14T     HAL2     0.900000E-01   1.00800           0
     19663 MEMB     169      OSM      C15S     CTL2    -0.180000       12.0110           0
     19664 MEMB     169      OSM      H15S     HAL2     0.900000E-01   1.00800           0
     19665 MEMB     169      OSM      H15T     HAL2     0.900000E-01   1.00800           0
     19666 MEMB     169      OSM      C16S     CTL2    -0.180000       12.0110           0
     19667 MEMB     169      OSM      H16S     HAL2     0.900000E-01   1.00800           0
     19668 MEMB     169      OSM      H16T     HAL2     0.900000E-01   1.00800           0
     19669 MEMB     169      OSM      C17S     CTL2    -0.180000       12.0110           0
     19670 MEMB     169      OSM      H17S     HAL2     0.900000E-01   1.00800           0
     19671 MEMB     169      OSM      H17T     HAL2     0.900000E-01   1.00800           0
     19672 MEMB     169      OSM      C18S     CTL3    -0.270000       12.0110           0
     19673 MEMB     169      OSM      H18S     HAL3     0.900000E-01   1.00800           0
     19674 MEMB     169      OSM      H18T     HAL3     0.900000E-01   1.00800           0
     19675 MEMB     169      OSM      H18U     HAL3     0.900000E-01   1.00800           0
     19676 MEMB     169      OSM      C1F      C        0.550000       12.0110           0
     19677 MEMB     169      OSM      OF       O       -0.600000       15.9994           0
     19678 MEMB     169      OSM      C2F      CTL2    -0.700000E-01   12.0110           0
     19679 MEMB     169      OSM      H2F      HAL2     0.600000E-01   1.00800           0
     19680 MEMB     169      OSM      H2G      HAL2     0.600000E-01   1.00800           0
     19681 MEMB     169      OSM      C3F      CTL2    -0.180000       12.0110           0
     19682 MEMB     169      OSM      H3F      HAL2     0.900000E-01   1.00800           0
     19683 MEMB     169      OSM      H3G      HAL2     0.900000E-01   1.00800           0
     19684 MEMB     169      OSM      C4F      CTL2    -0.180000       12.0110           0
     19685 MEMB     169      OSM      H4F      HAL2     0.900000E-01   1.00800           0
     19686 MEMB     169      OSM      H4G      HAL2     0.900000E-01   1.00800           0
     19687 MEMB     169      OSM      C5F      CTL2    -0.180000       12.0110           0
     19688 MEMB     169      OSM      H5F      HAL2     0.900000E-01   1.00800           0
     19689 MEMB     169      OSM      H5G      HAL2     0.900000E-01   1.00800           0
     19690 MEMB     169      OSM      C6F      CTL2    -0.180000       12.0110           0
     19691 MEMB     169      OSM      H6F      HAL2     0.900000E-01   1.00800           0
     19692 MEMB     169      OSM      H6G      HAL2     0.900000E-01   1.00800           0
     19693 MEMB     169      OSM      C7F      CTL2    -0.180000       12.0110           0
     19694 MEMB     169      OSM      H7F      HAL2     0.900000E-01   1.00800           0
     19695 MEMB     169      OSM      H7G      HAL2     0.900000E-01   1.00800           0
     19696 MEMB     169      OSM      C8F      CTL2    -0.180000       12.0110           0
     19697 MEMB     169      OSM      H8F      HAL2     0.900000E-01   1.00800           0
     19698 MEMB     169      OSM      H8G      HAL2     0.900000E-01   1.00800           0
     19699 MEMB     169      OSM      C9F      CEL1    -0.150000       12.0110           0
     19700 MEMB     169      OSM      H9F      HEL1     0.150000       1.00800           0
     19701 MEMB     169      OSM      C10F     CEL1    -0.150000       12.0110           0
     19702 MEMB     169      OSM      H10F     HEL1     0.150000       1.00800           0
     19703 MEMB     169      OSM      C11F     CTL2    -0.180000       12.0110           0
     19704 MEMB     169      OSM      H11F     HAL2     0.900000E-01   1.00800           0
     19705 MEMB     169      OSM      H11G     HAL2     0.900000E-01   1.00800           0
     19706 MEMB     169      OSM      C12F     CTL2    -0.180000       12.0110           0
     19707 MEMB     169      OSM      H12F     HAL2     0.900000E-01   1.00800           0
     19708 MEMB     169      OSM      H12G     HAL2     0.900000E-01   1.00800           0
     19709 MEMB     169      OSM      C13F     CTL2    -0.180000       12.0110           0
     19710 MEMB     169      OSM      H13F     HAL2     0.900000E-01   1.00800           0
     19711 MEMB     169      OSM      H13G     HAL2     0.900000E-01   1.00800           0
     19712 MEMB     169      OSM      C14F     CTL2    -0.180000       12.0110           0
     19713 MEMB     169      OSM      H14F     HAL2     0.900000E-01   1.00800           0
     19714 MEMB     169      OSM      H14G     HAL2     0.900000E-01   1.00800           0
     19715 MEMB     169      OSM      C15F     CTL2    -0.180000       12.0110           0
     19716 MEMB     169      OSM      H15F     HAL2     0.900000E-01   1.00800           0
     19717 MEMB     169      OSM      H15G     HAL2     0.900000E-01   1.00800           0
     19718 MEMB     169      OSM      C16F     CTL2    -0.180000       12.0110           0
     19719 MEMB     169      OSM      H16F     HAL2     0.900000E-01   1.00800           0
     19720 MEMB     169      OSM      H16G     HAL2     0.900000E-01   1.00800           0
     19721 MEMB     169      OSM      C17F     CTL2    -0.180000       12.0110           0
     19722 MEMB     169      OSM      H17F     HAL2     0.900000E-01   1.00800           0
     19723 MEMB     169      OSM      H17G     HAL2     0.900000E-01   1.00800           0
     19724 MEMB     169      OSM      C18F     CTL3    -0.270000       12.0110           0
     19725 MEMB     169      OSM      H18F     HAL3     0.900000E-01   1.00800           0
     19726 MEMB     169      OSM      H18G     HAL3     0.900000E-01   1.00800           0
     19727 MEMB     169      OSM      H18H     HAL3     0.900000E-01   1.00800           0
     19728 MEMB     170      SLPC     N        NTL     -0.600000       14.0070           0
     19729 MEMB     170      SLPC     C13      CTL5    -0.350000       12.0110           0
     19730 MEMB     170      SLPC     H13A     HL       0.250000       1.00800           0
     19731 MEMB     170      SLPC     H13B     HL       0.250000       1.00800           0
     19732 MEMB     170      SLPC     H13C     HL       0.250000       1.00800           0
     19733 MEMB     170      SLPC     C14      CTL5    -0.350000       12.0110           0
     19734 MEMB     170      SLPC     H14A     HL       0.250000       1.00800           0
     19735 MEMB     170      SLPC     H14B     HL       0.250000       1.00800           0
     19736 MEMB     170      SLPC     H14C     HL       0.250000       1.00800           0
     19737 MEMB     170      SLPC     C15      CTL5    -0.350000       12.0110           0
     19738 MEMB     170      SLPC     H15A     HL       0.250000       1.00800           0
     19739 MEMB     170      SLPC     H15B     HL       0.250000       1.00800           0
     19740 MEMB     170      SLPC     H15C     HL       0.250000       1.00800           0
     19741 MEMB     170      SLPC     C12      CTL2    -0.100000       12.0110           0
     19742 MEMB     170      SLPC     H12A     HL       0.250000       1.00800           0
     19743 MEMB     170      SLPC     H12B     HL       0.250000       1.00800           0
     19744 MEMB     170      SLPC     C11      CTL2    -0.800000E-01   12.0110           0
     19745 MEMB     170      SLPC     H11A     HAL2     0.900000E-01   1.00800           0
     19746 MEMB     170      SLPC     H11B     HAL2     0.900000E-01   1.00800           0
     19747 MEMB     170      SLPC     P        PL        1.50000       30.9740           0
     19748 MEMB     170      SLPC     O13      O2L     -0.780000       15.9994           0
     19749 MEMB     170      SLPC     O14      O2L     -0.780000       15.9994           0
     19750 MEMB     170      SLPC     O12      OSLP    -0.570000       15.9994           0
     19751 MEMB     170      SLPC     O11      OSLP    -0.570000       15.9994           0
     19752 MEMB     170      SLPC     C1       CTL2    -0.800000E-01   12.0110           0
     19753 MEMB     170      SLPC     HA       HAL2     0.900000E-01   1.00800           0
     19754 MEMB     170      SLPC     HB       HAL2     0.900000E-01   1.00800           0
     19755 MEMB     170      SLPC     C2       CTL1     0.170000       12.0110           0
     19756 MEMB     170      SLPC     HS       HAL1     0.900000E-01   1.00800           0
     19757 MEMB     170      SLPC     O21      OSL     -0.490000       15.9994           0
     19758 MEMB     170      SLPC     C21      CL       0.900000       12.0110           0
     19759 MEMB     170      SLPC     O22      OBL     -0.630000       15.9994           0
     19760 MEMB     170      SLPC     C22      CTL2    -0.220000       12.0110           0
     19761 MEMB     170      SLPC     H2R      HAL2     0.900000E-01   1.00800           0
     19762 MEMB     170      SLPC     H2S      HAL2     0.900000E-01   1.00800           0
     19763 MEMB     170      SLPC     C3       CTL2     0.800000E-01   12.0110           0
     19764 MEMB     170      SLPC     HX       HAL2     0.900000E-01   1.00800           0
     19765 MEMB     170      SLPC     HY       HAL2     0.900000E-01   1.00800           0
     19766 MEMB     170      SLPC     O31      OSL     -0.490000       15.9994           0
     19767 MEMB     170      SLPC     C31      CL       0.900000       12.0110           0
     19768 MEMB     170      SLPC     O32      OBL     -0.630000       15.9994           0
     19769 MEMB     170      SLPC     C32      CTL2    -0.220000       12.0110           0
     19770 MEMB     170      SLPC     H2X      HAL2     0.900000E-01   1.00800           0
     19771 MEMB     170      SLPC     H2Y      HAL2     0.900000E-01   1.00800           0
     19772 MEMB     170      SLPC     C23      CTL2    -0.180000       12.0110           0
     19773 MEMB     170      SLPC     H3R      HAL2     0.900000E-01   1.00800           0
     19774 MEMB     170      SLPC     H3S      HAL2     0.900000E-01   1.00800           0
     19775 MEMB     170      SLPC     C24      CTL2    -0.180000       12.0110           0
     19776 MEMB     170      SLPC     H4R      HAL2     0.900000E-01   1.00800           0
     19777 MEMB     170      SLPC     H4S      HAL2     0.900000E-01   1.00800           0
     19778 MEMB     170      SLPC     C25      CTL2    -0.180000       12.0110           0
     19779 MEMB     170      SLPC     H5R      HAL2     0.900000E-01   1.00800           0
     19780 MEMB     170      SLPC     H5S      HAL2     0.900000E-01   1.00800           0
     19781 MEMB     170      SLPC     C26      CTL2    -0.180000       12.0110           0
     19782 MEMB     170      SLPC     H6R      HAL2     0.900000E-01   1.00800           0
     19783 MEMB     170      SLPC     H6S      HAL2     0.900000E-01   1.00800           0
     19784 MEMB     170      SLPC     C27      CTL2    -0.180000       12.0110           0
     19785 MEMB     170      SLPC     H7R      HAL2     0.900000E-01   1.00800           0
     19786 MEMB     170      SLPC     H7S      HAL2     0.900000E-01   1.00800           0
     19787 MEMB     170      SLPC     C28      CTL2    -0.180000       12.0110           0
     19788 MEMB     170      SLPC     H8R      HAL2     0.900000E-01   1.00800           0
     19789 MEMB     170      SLPC     H8S      HAL2     0.900000E-01   1.00800           0
     19790 MEMB     170      SLPC     C29      CEL1    -0.150000       12.0110           0
     19791 MEMB     170      SLPC     H9R      HEL1     0.150000       1.00800           0
     19792 MEMB     170      SLPC     C210     CEL1    -0.150000       12.0110           0
     19793 MEMB     170      SLPC     H10R     HEL1     0.150000       1.00800           0
     19794 MEMB     170      SLPC     C211     CTL2    -0.180000       12.0110           0
     19795 MEMB     170      SLPC     H11R     HAL2     0.900000E-01   1.00800           0
     19796 MEMB     170      SLPC     H11S     HAL2     0.900000E-01   1.00800           0
     19797 MEMB     170      SLPC     C212     CEL1    -0.150000       12.0110           0
     19798 MEMB     170      SLPC     H12R     HEL1     0.150000       1.00800           0
     19799 MEMB     170      SLPC     C213     CEL1    -0.150000       12.0110           0
     19800 MEMB     170      SLPC     H13R     HEL1     0.150000       1.00800           0
     19801 MEMB     170      SLPC     C214     CTL2    -0.180000       12.0110           0
     19802 MEMB     170      SLPC     H14R     HAL2     0.900000E-01   1.00800           0
     19803 MEMB     170      SLPC     H14S     HAL2     0.900000E-01   1.00800           0
     19804 MEMB     170      SLPC     C215     CTL2    -0.180000       12.0110           0
     19805 MEMB     170      SLPC     H15R     HAL2     0.900000E-01   1.00800           0
     19806 MEMB     170      SLPC     H15S     HAL2     0.900000E-01   1.00800           0
     19807 MEMB     170      SLPC     C216     CTL2    -0.180000       12.0110           0
     19808 MEMB     170      SLPC     H16R     HAL2     0.900000E-01   1.00800           0
     19809 MEMB     170      SLPC     H16S     HAL2     0.900000E-01   1.00800           0
     19810 MEMB     170      SLPC     C217     CTL2    -0.180000       12.0110           0
     19811 MEMB     170      SLPC     H17R     HAL2     0.900000E-01   1.00800           0
     19812 MEMB     170      SLPC     H17S     HAL2     0.900000E-01   1.00800           0
     19813 MEMB     170      SLPC     C218     CTL3    -0.270000       12.0110           0
     19814 MEMB     170      SLPC     H18R     HAL3     0.900000E-01   1.00800           0
     19815 MEMB     170      SLPC     H18S     HAL3     0.900000E-01   1.00800           0
     19816 MEMB     170      SLPC     H18T     HAL3     0.900000E-01   1.00800           0
     19817 MEMB     170      SLPC     C33      CTL2    -0.180000       12.0110           0
     19818 MEMB     170      SLPC     H3X      HAL2     0.900000E-01   1.00800           0
     19819 MEMB     170      SLPC     H3Y      HAL2     0.900000E-01   1.00800           0
     19820 MEMB     170      SLPC     C34      CTL2    -0.180000       12.0110           0
     19821 MEMB     170      SLPC     H4X      HAL2     0.900000E-01   1.00800           0
     19822 MEMB     170      SLPC     H4Y      HAL2     0.900000E-01   1.00800           0
     19823 MEMB     170      SLPC     C35      CTL2    -0.180000       12.0110           0
     19824 MEMB     170      SLPC     H5X      HAL2     0.900000E-01   1.00800           0
     19825 MEMB     170      SLPC     H5Y      HAL2     0.900000E-01   1.00800           0
     19826 MEMB     170      SLPC     C36      CTL2    -0.180000       12.0110           0
     19827 MEMB     170      SLPC     H6X      HAL2     0.900000E-01   1.00800           0
     19828 MEMB     170      SLPC     H6Y      HAL2     0.900000E-01   1.00800           0
     19829 MEMB     170      SLPC     C37      CTL2    -0.180000       12.0110           0
     19830 MEMB     170      SLPC     H7X      HAL2     0.900000E-01   1.00800           0
     19831 MEMB     170      SLPC     H7Y      HAL2     0.900000E-01   1.00800           0
     19832 MEMB     170      SLPC     C38      CTL2    -0.180000       12.0110           0
     19833 MEMB     170      SLPC     H8X      HAL2     0.900000E-01   1.00800           0
     19834 MEMB     170      SLPC     H8Y      HAL2     0.900000E-01   1.00800           0
     19835 MEMB     170      SLPC     C39      CTL2    -0.180000       12.0110           0
     19836 MEMB     170      SLPC     H9X      HAL2     0.900000E-01   1.00800           0
     19837 MEMB     170      SLPC     H9Y      HAL2     0.900000E-01   1.00800           0
     19838 MEMB     170      SLPC     C310     CTL2    -0.180000       12.0110           0
     19839 MEMB     170      SLPC     H10X     HAL2     0.900000E-01   1.00800           0
     19840 MEMB     170      SLPC     H10Y     HAL2     0.900000E-01   1.00800           0
     19841 MEMB     170      SLPC     C311     CTL2    -0.180000       12.0110           0
     19842 MEMB     170      SLPC     H11X     HAL2     0.900000E-01   1.00800           0
     19843 MEMB     170      SLPC     H11Y     HAL2     0.900000E-01   1.00800           0
     19844 MEMB     170      SLPC     C312     CTL2    -0.180000       12.0110           0
     19845 MEMB     170      SLPC     H12X     HAL2     0.900000E-01   1.00800           0
     19846 MEMB     170      SLPC     H12Y     HAL2     0.900000E-01   1.00800           0
     19847 MEMB     170      SLPC     C313     CTL2    -0.180000       12.0110           0
     19848 MEMB     170      SLPC     H13X     HAL2     0.900000E-01   1.00800           0
     19849 MEMB     170      SLPC     H13Y     HAL2     0.900000E-01   1.00800           0
     19850 MEMB     170      SLPC     C314     CTL2    -0.180000       12.0110           0
     19851 MEMB     170      SLPC     H14X     HAL2     0.900000E-01   1.00800           0
     19852 MEMB     170      SLPC     H14Y     HAL2     0.900000E-01   1.00800           0
     19853 MEMB     170      SLPC     C315     CTL2    -0.180000       12.0110           0
     19854 MEMB     170      SLPC     H15X     HAL2     0.900000E-01   1.00800           0
     19855 MEMB     170      SLPC     H15Y     HAL2     0.900000E-01   1.00800           0
     19856 MEMB     170      SLPC     C316     CTL2    -0.180000       12.0110           0
     19857 MEMB     170      SLPC     H16X     HAL2     0.900000E-01   1.00800           0
     19858 MEMB     170      SLPC     H16Y     HAL2     0.900000E-01   1.00800           0
     19859 MEMB     170      SLPC     C317     CTL2    -0.180000       12.0110           0
     19860 MEMB     170      SLPC     H17X     HAL2     0.900000E-01   1.00800           0
     19861 MEMB     170      SLPC     H17Y     HAL2     0.900000E-01   1.00800           0
     19862 MEMB     170      SLPC     C318     CTL3    -0.270000       12.0110           0
     19863 MEMB     170      SLPC     H18X     HAL3     0.900000E-01   1.00800           0
     19864 MEMB     170      SLPC     H18Y     HAL3     0.900000E-01   1.00800           0
     19865 MEMB     170      SLPC     H18Z     HAL3     0.900000E-01   1.00800           0
     19866 MEMB     171      SOPE     N        NH3L    -0.300000       14.0070           0
     19867 MEMB     171      SOPE     HN1      HCL      0.330000       1.00800           0
     19868 MEMB     171      SOPE     HN2      HCL      0.330000       1.00800           0
     19869 MEMB     171      SOPE     HN3      HCL      0.330000       1.00800           0
     19870 MEMB     171      SOPE     C12      CTL2     0.130000       12.0110           0
     19871 MEMB     171      SOPE     H12A     HAL2     0.900000E-01   1.00800           0
     19872 MEMB     171      SOPE     H12B     HAL2     0.900000E-01   1.00800           0
     19873 MEMB     171      SOPE     C11      CTL2    -0.800000E-01   12.0110           0
     19874 MEMB     171      SOPE     H11A     HAL2     0.900000E-01   1.00800           0
     19875 MEMB     171      SOPE     H11B     HAL2     0.900000E-01   1.00800           0
     19876 MEMB     171      SOPE     P        PL        1.50000       30.9740           0
     19877 MEMB     171      SOPE     O13      O2L     -0.780000       15.9994           0
     19878 MEMB     171      SOPE     O14      O2L     -0.780000       15.9994           0
     19879 MEMB     171      SOPE     O12      OSLP    -0.570000       15.9994           0
     19880 MEMB     171      SOPE     O11      OSLP    -0.570000       15.9994           0
     19881 MEMB     171      SOPE     C1       CTL2    -0.800000E-01   12.0110           0
     19882 MEMB     171      SOPE     HA       HAL2     0.900000E-01   1.00800           0
     19883 MEMB     171      SOPE     HB       HAL2     0.900000E-01   1.00800           0
     19884 MEMB     171      SOPE     C2       CTL1     0.170000       12.0110           0
     19885 MEMB     171      SOPE     HS       HAL1     0.900000E-01   1.00800           0
     19886 MEMB     171      SOPE     O21      OSL     -0.490000       15.9994           0
     19887 MEMB     171      SOPE     C21      CL       0.900000       12.0110           0
     19888 MEMB     171      SOPE     O22      OBL     -0.630000       15.9994           0
     19889 MEMB     171      SOPE     C22      CTL2    -0.220000       12.0110           0
     19890 MEMB     171      SOPE     H2R      HAL2     0.900000E-01   1.00800           0
     19891 MEMB     171      SOPE     H2S      HAL2     0.900000E-01   1.00800           0
     19892 MEMB     171      SOPE     C3       CTL2     0.800000E-01   12.0110           0
     19893 MEMB     171      SOPE     HX       HAL2     0.900000E-01   1.00800           0
     19894 MEMB     171      SOPE     HY       HAL2     0.900000E-01   1.00800           0
     19895 MEMB     171      SOPE     O31      OSL     -0.490000       15.9994           0
     19896 MEMB     171      SOPE     C31      CL       0.900000       12.0110           0
     19897 MEMB     171      SOPE     O32      OBL     -0.630000       15.9994           0
     19898 MEMB     171      SOPE     C32      CTL2    -0.220000       12.0110           0
     19899 MEMB     171      SOPE     H2X      HAL2     0.900000E-01   1.00800           0
     19900 MEMB     171      SOPE     H2Y      HAL2     0.900000E-01   1.00800           0
     19901 MEMB     171      SOPE     C23      CTL2    -0.180000       12.0110           0
     19902 MEMB     171      SOPE     H3R      HAL2     0.900000E-01   1.00800           0
     19903 MEMB     171      SOPE     H3S      HAL2     0.900000E-01   1.00800           0
     19904 MEMB     171      SOPE     C24      CTL2    -0.180000       12.0110           0
     19905 MEMB     171      SOPE     H4R      HAL2     0.900000E-01   1.00800           0
     19906 MEMB     171      SOPE     H4S      HAL2     0.900000E-01   1.00800           0
     19907 MEMB     171      SOPE     C25      CTL2    -0.180000       12.0110           0
     19908 MEMB     171      SOPE     H5R      HAL2     0.900000E-01   1.00800           0
     19909 MEMB     171      SOPE     H5S      HAL2     0.900000E-01   1.00800           0
     19910 MEMB     171      SOPE     C26      CTL2    -0.180000       12.0110           0
     19911 MEMB     171      SOPE     H6R      HAL2     0.900000E-01   1.00800           0
     19912 MEMB     171      SOPE     H6S      HAL2     0.900000E-01   1.00800           0
     19913 MEMB     171      SOPE     C27      CTL2    -0.180000       12.0110           0
     19914 MEMB     171      SOPE     H7R      HAL2     0.900000E-01   1.00800           0
     19915 MEMB     171      SOPE     H7S      HAL2     0.900000E-01   1.00800           0
     19916 MEMB     171      SOPE     C28      CTL2    -0.180000       12.0110           0
     19917 MEMB     171      SOPE     H8R      HAL2     0.900000E-01   1.00800           0
     19918 MEMB     171      SOPE     H8S      HAL2     0.900000E-01   1.00800           0
     19919 MEMB     171      SOPE     C29      CEL1    -0.150000       12.0110           0
     19920 MEMB     171      SOPE     H91      HEL1     0.150000       1.00800           0
     19921 MEMB     171      SOPE     C210     CEL1    -0.150000       12.0110           0
     19922 MEMB     171      SOPE     H101     HEL1     0.150000       1.00800           0
     19923 MEMB     171      SOPE     C211     CTL2    -0.180000       12.0110           0
     19924 MEMB     171      SOPE     H11R     HAL2     0.900000E-01   1.00800           0
     19925 MEMB     171      SOPE     H11S     HAL2     0.900000E-01   1.00800           0
     19926 MEMB     171      SOPE     C212     CTL2    -0.180000       12.0110           0
     19927 MEMB     171      SOPE     H12R     HAL2     0.900000E-01   1.00800           0
     19928 MEMB     171      SOPE     H12S     HAL2     0.900000E-01   1.00800           0
     19929 MEMB     171      SOPE     C213     CTL2    -0.180000       12.0110           0
     19930 MEMB     171      SOPE     H13R     HAL2     0.900000E-01   1.00800           0
     19931 MEMB     171      SOPE     H13S     HAL2     0.900000E-01   1.00800           0
     19932 MEMB     171      SOPE     C214     CTL2    -0.180000       12.0110           0
     19933 MEMB     171      SOPE     H14R     HAL2     0.900000E-01   1.00800           0
     19934 MEMB     171      SOPE     H14S     HAL2     0.900000E-01   1.00800           0
     19935 MEMB     171      SOPE     C215     CTL2    -0.180000       12.0110           0
     19936 MEMB     171      SOPE     H15R     HAL2     0.900000E-01   1.00800           0
     19937 MEMB     171      SOPE     H15S     HAL2     0.900000E-01   1.00800           0
     19938 MEMB     171      SOPE     C216     CTL2    -0.180000       12.0110           0
     19939 MEMB     171      SOPE     H16R     HAL2     0.900000E-01   1.00800           0
     19940 MEMB     171      SOPE     H16S     HAL2     0.900000E-01   1.00800           0
     19941 MEMB     171      SOPE     C217     CTL2    -0.180000       12.0110           0
     19942 MEMB     171      SOPE     H17R     HAL2     0.900000E-01   1.00800           0
     19943 MEMB     171      SOPE     H17S     HAL2     0.900000E-01   1.00800           0
     19944 MEMB     171      SOPE     C218     CTL3    -0.270000       12.0110           0
     19945 MEMB     171      SOPE     H18R     HAL3     0.900000E-01   1.00800           0
     19946 MEMB     171      SOPE     H18S     HAL3     0.900000E-01   1.00800           0
     19947 MEMB     171      SOPE     H18T     HAL3     0.900000E-01   1.00800           0
     19948 MEMB     171      SOPE     C33      CTL2    -0.180000       12.0110           0
     19949 MEMB     171      SOPE     H3X      HAL2     0.900000E-01   1.00800           0
     19950 MEMB     171      SOPE     H3Y      HAL2     0.900000E-01   1.00800           0
     19951 MEMB     171      SOPE     C34      CTL2    -0.180000       12.0110           0
     19952 MEMB     171      SOPE     H4X      HAL2     0.900000E-01   1.00800           0
     19953 MEMB     171      SOPE     H4Y      HAL2     0.900000E-01   1.00800           0
     19954 MEMB     171      SOPE     C35      CTL2    -0.180000       12.0110           0
     19955 MEMB     171      SOPE     H5X      HAL2     0.900000E-01   1.00800           0
     19956 MEMB     171      SOPE     H5Y      HAL2     0.900000E-01   1.00800           0
     19957 MEMB     171      SOPE     C36      CTL2    -0.180000       12.0110           0
     19958 MEMB     171      SOPE     H6X      HAL2     0.900000E-01   1.00800           0
     19959 MEMB     171      SOPE     H6Y      HAL2     0.900000E-01   1.00800           0
     19960 MEMB     171      SOPE     C37      CTL2    -0.180000       12.0110           0
     19961 MEMB     171      SOPE     H7X      HAL2     0.900000E-01   1.00800           0
     19962 MEMB     171      SOPE     H7Y      HAL2     0.900000E-01   1.00800           0
     19963 MEMB     171      SOPE     C38      CTL2    -0.180000       12.0110           0
     19964 MEMB     171      SOPE     H8X      HAL2     0.900000E-01   1.00800           0
     19965 MEMB     171      SOPE     H8Y      HAL2     0.900000E-01   1.00800           0
     19966 MEMB     171      SOPE     C39      CTL2    -0.180000       12.0110           0
     19967 MEMB     171      SOPE     H9X      HAL2     0.900000E-01   1.00800           0
     19968 MEMB     171      SOPE     H9Y      HAL2     0.900000E-01   1.00800           0
     19969 MEMB     171      SOPE     C310     CTL2    -0.180000       12.0110           0
     19970 MEMB     171      SOPE     H10X     HAL2     0.900000E-01   1.00800           0
     19971 MEMB     171      SOPE     H10Y     HAL2     0.900000E-01   1.00800           0
     19972 MEMB     171      SOPE     C311     CTL2    -0.180000       12.0110           0
     19973 MEMB     171      SOPE     H11X     HAL2     0.900000E-01   1.00800           0
     19974 MEMB     171      SOPE     H11Y     HAL2     0.900000E-01   1.00800           0
     19975 MEMB     171      SOPE     C312     CTL2    -0.180000       12.0110           0
     19976 MEMB     171      SOPE     H12X     HAL2     0.900000E-01   1.00800           0
     19977 MEMB     171      SOPE     H12Y     HAL2     0.900000E-01   1.00800           0
     19978 MEMB     171      SOPE     C313     CTL2    -0.180000       12.0110           0
     19979 MEMB     171      SOPE     H13X     HAL2     0.900000E-01   1.00800           0
     19980 MEMB     171      SOPE     H13Y     HAL2     0.900000E-01   1.00800           0
     19981 MEMB     171      SOPE     C314     CTL2    -0.180000       12.0110           0
     19982 MEMB     171      SOPE     H14X     HAL2     0.900000E-01   1.00800           0
     19983 MEMB     171      SOPE     H14Y     HAL2     0.900000E-01   1.00800           0
     19984 MEMB     171      SOPE     C315     CTL2    -0.180000       12.0110           0
     19985 MEMB     171      SOPE     H15X     HAL2     0.900000E-01   1.00800           0
     19986 MEMB     171      SOPE     H15Y     HAL2     0.900000E-01   1.00800           0
     19987 MEMB     171      SOPE     C316     CTL2    -0.180000       12.0110           0
     19988 MEMB     171      SOPE     H16X     HAL2     0.900000E-01   1.00800           0
     19989 MEMB     171      SOPE     H16Y     HAL2     0.900000E-01   1.00800           0
     19990 MEMB     171      SOPE     C317     CTL2    -0.180000       12.0110           0
     19991 MEMB     171      SOPE     H17X     HAL2     0.900000E-01   1.00800           0
     19992 MEMB     171      SOPE     H17Y     HAL2     0.900000E-01   1.00800           0
     19993 MEMB     171      SOPE     C318     CTL3    -0.270000       12.0110           0
     19994 MEMB     171      SOPE     H18X     HAL3     0.900000E-01   1.00800           0
     19995 MEMB     171      SOPE     H18Y     HAL3     0.900000E-01   1.00800           0
     19996 MEMB     171      SOPE     H18Z     HAL3     0.900000E-01   1.00800           0
     19997 MEMB     172      SAPE     N        NH3L    -0.300000       14.0070           0
     19998 MEMB     172      SAPE     HN1      HCL      0.330000       1.00800           0
     19999 MEMB     172      SAPE     HN2      HCL      0.330000       1.00800           0
     20000 MEMB     172      SAPE     HN3      HCL      0.330000       1.00800           0
     20001 MEMB     172      SAPE     C12      CTL2     0.130000       12.0110           0
     20002 MEMB     172      SAPE     H12A     HAL2     0.900000E-01   1.00800           0
     20003 MEMB     172      SAPE     H12B     HAL2     0.900000E-01   1.00800           0
     20004 MEMB     172      SAPE     C11      CTL2    -0.800000E-01   12.0110           0
     20005 MEMB     172      SAPE     H11A     HAL2     0.900000E-01   1.00800           0
     20006 MEMB     172      SAPE     H11B     HAL2     0.900000E-01   1.00800           0
     20007 MEMB     172      SAPE     P        PL        1.50000       30.9740           0
     20008 MEMB     172      SAPE     O13      O2L     -0.780000       15.9994           0
     20009 MEMB     172      SAPE     O14      O2L     -0.780000       15.9994           0
     20010 MEMB     172      SAPE     O12      OSLP    -0.570000       15.9994           0
     20011 MEMB     172      SAPE     O11      OSLP    -0.570000       15.9994           0
     20012 MEMB     172      SAPE     C1       CTL2    -0.800000E-01   12.0110           0
     20013 MEMB     172      SAPE     HA       HAL2     0.900000E-01   1.00800           0
     20014 MEMB     172      SAPE     HB       HAL2     0.900000E-01   1.00800           0
     20015 MEMB     172      SAPE     C2       CTL1     0.170000       12.0110           0
     20016 MEMB     172      SAPE     HS       HAL1     0.900000E-01   1.00800           0
     20017 MEMB     172      SAPE     O21      OSL     -0.490000       15.9994           0
     20018 MEMB     172      SAPE     C21      CL       0.900000       12.0110           0
     20019 MEMB     172      SAPE     O22      OBL     -0.630000       15.9994           0
     20020 MEMB     172      SAPE     C22      CTL2    -0.220000       12.0110           0
     20021 MEMB     172      SAPE     H2R      HAL2     0.900000E-01   1.00800           0
     20022 MEMB     172      SAPE     H2S      HAL2     0.900000E-01   1.00800           0
     20023 MEMB     172      SAPE     C3       CTL2     0.800000E-01   12.0110           0
     20024 MEMB     172      SAPE     HX       HAL2     0.900000E-01   1.00800           0
     20025 MEMB     172      SAPE     HY       HAL2     0.900000E-01   1.00800           0
     20026 MEMB     172      SAPE     O31      OSL     -0.490000       15.9994           0
     20027 MEMB     172      SAPE     C31      CL       0.900000       12.0110           0
     20028 MEMB     172      SAPE     O32      OBL     -0.630000       15.9994           0
     20029 MEMB     172      SAPE     C32      CTL2    -0.220000       12.0110           0
     20030 MEMB     172      SAPE     H2X      HAL2     0.900000E-01   1.00800           0
     20031 MEMB     172      SAPE     H2Y      HAL2     0.900000E-01   1.00800           0
     20032 MEMB     172      SAPE     C23      CTL2    -0.180000       12.0110           0
     20033 MEMB     172      SAPE     H3R      HAL2     0.900000E-01   1.00800           0
     20034 MEMB     172      SAPE     H3S      HAL2     0.900000E-01   1.00800           0
     20035 MEMB     172      SAPE     C24      CTL2    -0.180000       12.0110           0
     20036 MEMB     172      SAPE     H4R      HAL2     0.900000E-01   1.00800           0
     20037 MEMB     172      SAPE     H4S      HAL2     0.900000E-01   1.00800           0
     20038 MEMB     172      SAPE     C25      CEL1    -0.150000       12.0110           0
     20039 MEMB     172      SAPE     H5R      HEL1     0.150000       1.00800           0
     20040 MEMB     172      SAPE     C26      CEL1    -0.150000       12.0110           0
     20041 MEMB     172      SAPE     H6R      HEL1     0.150000       1.00800           0
     20042 MEMB     172      SAPE     C27      CTL2    -0.180000       12.0110           0
     20043 MEMB     172      SAPE     H7R      HAL2     0.900000E-01   1.00800           0
     20044 MEMB     172      SAPE     H7S      HAL2     0.900000E-01   1.00800           0
     20045 MEMB     172      SAPE     C28      CEL1    -0.150000       12.0110           0
     20046 MEMB     172      SAPE     H8R      HEL1     0.150000       1.00800           0
     20047 MEMB     172      SAPE     C29      CEL1    -0.150000       12.0110           0
     20048 MEMB     172      SAPE     H9R      HEL1     0.150000       1.00800           0
     20049 MEMB     172      SAPE     C210     CTL2    -0.180000       12.0110           0
     20050 MEMB     172      SAPE     H10R     HAL2     0.900000E-01   1.00800           0
     20051 MEMB     172      SAPE     H10S     HAL2     0.900000E-01   1.00800           0
     20052 MEMB     172      SAPE     C211     CEL1    -0.150000       12.0110           0
     20053 MEMB     172      SAPE     H11R     HEL1     0.150000       1.00800           0
     20054 MEMB     172      SAPE     C212     CEL1    -0.150000       12.0110           0
     20055 MEMB     172      SAPE     H12R     HEL1     0.150000       1.00800           0
     20056 MEMB     172      SAPE     C213     CTL2    -0.180000       12.0110           0
     20057 MEMB     172      SAPE     H13R     HAL2     0.900000E-01   1.00800           0
     20058 MEMB     172      SAPE     H13S     HAL2     0.900000E-01   1.00800           0
     20059 MEMB     172      SAPE     C214     CEL1    -0.150000       12.0110           0
     20060 MEMB     172      SAPE     H14R     HEL1     0.150000       1.00800           0
     20061 MEMB     172      SAPE     C215     CEL1    -0.150000       12.0110           0
     20062 MEMB     172      SAPE     H15R     HEL1     0.150000       1.00800           0
     20063 MEMB     172      SAPE     C216     CTL2    -0.180000       12.0110           0
     20064 MEMB     172      SAPE     H16R     HAL2     0.900000E-01   1.00800           0
     20065 MEMB     172      SAPE     H16S     HAL2     0.900000E-01   1.00800           0
     20066 MEMB     172      SAPE     C217     CTL2    -0.180000       12.0110           0
     20067 MEMB     172      SAPE     H17R     HAL2     0.900000E-01   1.00800           0
     20068 MEMB     172      SAPE     H17S     HAL2     0.900000E-01   1.00800           0
     20069 MEMB     172      SAPE     C218     CTL2    -0.180000       12.0110           0
     20070 MEMB     172      SAPE     H18R     HAL2     0.900000E-01   1.00800           0
     20071 MEMB     172      SAPE     H18S     HAL2     0.900000E-01   1.00800           0
     20072 MEMB     172      SAPE     C219     CTL2    -0.180000       12.0110           0
     20073 MEMB     172      SAPE     H19R     HAL2     0.900000E-01   1.00800           0
     20074 MEMB     172      SAPE     H19S     HAL2     0.900000E-01   1.00800           0
     20075 MEMB     172      SAPE     C220     CTL3    -0.270000       12.0110           0
     20076 MEMB     172      SAPE     H20R     HAL3     0.900000E-01   1.00800           0
     20077 MEMB     172      SAPE     H20S     HAL3     0.900000E-01   1.00800           0
     20078 MEMB     172      SAPE     H20T     HAL3     0.900000E-01   1.00800           0
     20079 MEMB     172      SAPE     C33      CTL2    -0.180000       12.0110           0
     20080 MEMB     172      SAPE     H3X      HAL2     0.900000E-01   1.00800           0
     20081 MEMB     172      SAPE     H3Y      HAL2     0.900000E-01   1.00800           0
     20082 MEMB     172      SAPE     C34      CTL2    -0.180000       12.0110           0
     20083 MEMB     172      SAPE     H4X      HAL2     0.900000E-01   1.00800           0
     20084 MEMB     172      SAPE     H4Y      HAL2     0.900000E-01   1.00800           0
     20085 MEMB     172      SAPE     C35      CTL2    -0.180000       12.0110           0
     20086 MEMB     172      SAPE     H5X      HAL2     0.900000E-01   1.00800           0
     20087 MEMB     172      SAPE     H5Y      HAL2     0.900000E-01   1.00800           0
     20088 MEMB     172      SAPE     C36      CTL2    -0.180000       12.0110           0
     20089 MEMB     172      SAPE     H6X      HAL2     0.900000E-01   1.00800           0
     20090 MEMB     172      SAPE     H6Y      HAL2     0.900000E-01   1.00800           0
     20091 MEMB     172      SAPE     C37      CTL2    -0.180000       12.0110           0
     20092 MEMB     172      SAPE     H7X      HAL2     0.900000E-01   1.00800           0
     20093 MEMB     172      SAPE     H7Y      HAL2     0.900000E-01   1.00800           0
     20094 MEMB     172      SAPE     C38      CTL2    -0.180000       12.0110           0
     20095 MEMB     172      SAPE     H8X      HAL2     0.900000E-01   1.00800           0
     20096 MEMB     172      SAPE     H8Y      HAL2     0.900000E-01   1.00800           0
     20097 MEMB     172      SAPE     C39      CTL2    -0.180000       12.0110           0
     20098 MEMB     172      SAPE     H9X      HAL2     0.900000E-01   1.00800           0
     20099 MEMB     172      SAPE     H9Y      HAL2     0.900000E-01   1.00800           0
     20100 MEMB     172      SAPE     C310     CTL2    -0.180000       12.0110           0
     20101 MEMB     172      SAPE     H10X     HAL2     0.900000E-01   1.00800           0
     20102 MEMB     172      SAPE     H10Y     HAL2     0.900000E-01   1.00800           0
     20103 MEMB     172      SAPE     C311     CTL2    -0.180000       12.0110           0
     20104 MEMB     172      SAPE     H11X     HAL2     0.900000E-01   1.00800           0
     20105 MEMB     172      SAPE     H11Y     HAL2     0.900000E-01   1.00800           0
     20106 MEMB     172      SAPE     C312     CTL2    -0.180000       12.0110           0
     20107 MEMB     172      SAPE     H12X     HAL2     0.900000E-01   1.00800           0
     20108 MEMB     172      SAPE     H12Y     HAL2     0.900000E-01   1.00800           0
     20109 MEMB     172      SAPE     C313     CTL2    -0.180000       12.0110           0
     20110 MEMB     172      SAPE     H13X     HAL2     0.900000E-01   1.00800           0
     20111 MEMB     172      SAPE     H13Y     HAL2     0.900000E-01   1.00800           0
     20112 MEMB     172      SAPE     C314     CTL2    -0.180000       12.0110           0
     20113 MEMB     172      SAPE     H14X     HAL2     0.900000E-01   1.00800           0
     20114 MEMB     172      SAPE     H14Y     HAL2     0.900000E-01   1.00800           0
     20115 MEMB     172      SAPE     C315     CTL2    -0.180000       12.0110           0
     20116 MEMB     172      SAPE     H15X     HAL2     0.900000E-01   1.00800           0
     20117 MEMB     172      SAPE     H15Y     HAL2     0.900000E-01   1.00800           0
     20118 MEMB     172      SAPE     C316     CTL2    -0.180000       12.0110           0
     20119 MEMB     172      SAPE     H16X     HAL2     0.900000E-01   1.00800           0
     20120 MEMB     172      SAPE     H16Y     HAL2     0.900000E-01   1.00800           0
     20121 MEMB     172      SAPE     C317     CTL2    -0.180000       12.0110           0
     20122 MEMB     172      SAPE     H17X     HAL2     0.900000E-01   1.00800           0
     20123 MEMB     172      SAPE     H17Y     HAL2     0.900000E-01   1.00800           0
     20124 MEMB     172      SAPE     C318     CTL3    -0.270000       12.0110           0
     20125 MEMB     172      SAPE     H18X     HAL3     0.900000E-01   1.00800           0
     20126 MEMB     172      SAPE     H18Y     HAL3     0.900000E-01   1.00800           0
     20127 MEMB     172      SAPE     H18Z     HAL3     0.900000E-01   1.00800           0
     20128 MEMB     173      SAPS     N        NH3L    -0.300000       14.0070           0
     20129 MEMB     173      SAPS     HN1      HCL      0.330000       1.00800           0
     20130 MEMB     173      SAPS     HN2      HCL      0.330000       1.00800           0
     20131 MEMB     173      SAPS     HN3      HCL      0.330000       1.00800           0
     20132 MEMB     173      SAPS     C12      CTL1     0.210000       12.0110           0
     20133 MEMB     173      SAPS     H12A     HBL      0.100000       1.00800           0
     20134 MEMB     173      SAPS     C13      CCL      0.340000       12.0110           0
     20135 MEMB     173      SAPS     O13A     OCL     -0.670000       15.9994           0
     20136 MEMB     173      SAPS     O13B     OCL     -0.670000       15.9994           0
     20137 MEMB     173      SAPS     C11      CTL2    -0.800000E-01   12.0110           0
     20138 MEMB     173      SAPS     H11A     HAL2     0.900000E-01   1.00800           0
     20139 MEMB     173      SAPS     H11B     HAL2     0.900000E-01   1.00800           0
     20140 MEMB     173      SAPS     P        PL        1.50000       30.9740           0
     20141 MEMB     173      SAPS     O13      O2L     -0.780000       15.9994           0
     20142 MEMB     173      SAPS     O14      O2L     -0.780000       15.9994           0
     20143 MEMB     173      SAPS     O12      OSLP    -0.570000       15.9994           0
     20144 MEMB     173      SAPS     O11      OSLP    -0.570000       15.9994           0
     20145 MEMB     173      SAPS     C1       CTL2    -0.800000E-01   12.0110           0
     20146 MEMB     173      SAPS     HA       HAL2     0.900000E-01   1.00800           0
     20147 MEMB     173      SAPS     HB       HAL2     0.900000E-01   1.00800           0
     20148 MEMB     173      SAPS     C2       CTL1     0.170000       12.0110           0
     20149 MEMB     173      SAPS     HS       HAL1     0.900000E-01   1.00800           0
     20150 MEMB     173      SAPS     O21      OSL     -0.490000       15.9994           0
     20151 MEMB     173      SAPS     C21      CL       0.900000       12.0110           0
     20152 MEMB     173      SAPS     O22      OBL     -0.630000       15.9994           0
     20153 MEMB     173      SAPS     C22      CTL2    -0.220000       12.0110           0
     20154 MEMB     173      SAPS     H2R      HAL2     0.900000E-01   1.00800           0
     20155 MEMB     173      SAPS     H2S      HAL2     0.900000E-01   1.00800           0
     20156 MEMB     173      SAPS     C3       CTL2     0.800000E-01   12.0110           0
     20157 MEMB     173      SAPS     HX       HAL2     0.900000E-01   1.00800           0
     20158 MEMB     173      SAPS     HY       HAL2     0.900000E-01   1.00800           0
     20159 MEMB     173      SAPS     O31      OSL     -0.490000       15.9994           0
     20160 MEMB     173      SAPS     C31      CL       0.900000       12.0110           0
     20161 MEMB     173      SAPS     O32      OBL     -0.630000       15.9994           0
     20162 MEMB     173      SAPS     C32      CTL2    -0.220000       12.0110           0
     20163 MEMB     173      SAPS     H2X      HAL2     0.900000E-01   1.00800           0
     20164 MEMB     173      SAPS     H2Y      HAL2     0.900000E-01   1.00800           0
     20165 MEMB     173      SAPS     C23      CTL2    -0.180000       12.0110           0
     20166 MEMB     173      SAPS     H3R      HAL2     0.900000E-01   1.00800           0
     20167 MEMB     173      SAPS     H3S      HAL2     0.900000E-01   1.00800           0
     20168 MEMB     173      SAPS     C24      CTL2    -0.180000       12.0110           0
     20169 MEMB     173      SAPS     H4R      HAL2     0.900000E-01   1.00800           0
     20170 MEMB     173      SAPS     H4S      HAL2     0.900000E-01   1.00800           0
     20171 MEMB     173      SAPS     C25      CEL1    -0.150000       12.0110           0
     20172 MEMB     173      SAPS     H5R      HEL1     0.150000       1.00800           0
     20173 MEMB     173      SAPS     C26      CEL1    -0.150000       12.0110           0
     20174 MEMB     173      SAPS     H6R      HEL1     0.150000       1.00800           0
     20175 MEMB     173      SAPS     C27      CTL2    -0.180000       12.0110           0
     20176 MEMB     173      SAPS     H7R      HAL2     0.900000E-01   1.00800           0
     20177 MEMB     173      SAPS     H7S      HAL2     0.900000E-01   1.00800           0
     20178 MEMB     173      SAPS     C28      CEL1    -0.150000       12.0110           0
     20179 MEMB     173      SAPS     H8R      HEL1     0.150000       1.00800           0
     20180 MEMB     173      SAPS     C29      CEL1    -0.150000       12.0110           0
     20181 MEMB     173      SAPS     H9R      HEL1     0.150000       1.00800           0
     20182 MEMB     173      SAPS     C210     CTL2    -0.180000       12.0110           0
     20183 MEMB     173      SAPS     H10R     HAL2     0.900000E-01   1.00800           0
     20184 MEMB     173      SAPS     H10S     HAL2     0.900000E-01   1.00800           0
     20185 MEMB     173      SAPS     C211     CEL1    -0.150000       12.0110           0
     20186 MEMB     173      SAPS     H11R     HEL1     0.150000       1.00800           0
     20187 MEMB     173      SAPS     C212     CEL1    -0.150000       12.0110           0
     20188 MEMB     173      SAPS     H12R     HEL1     0.150000       1.00800           0
     20189 MEMB     173      SAPS     C213     CTL2    -0.180000       12.0110           0
     20190 MEMB     173      SAPS     H13R     HAL2     0.900000E-01   1.00800           0
     20191 MEMB     173      SAPS     H13S     HAL2     0.900000E-01   1.00800           0
     20192 MEMB     173      SAPS     C214     CEL1    -0.150000       12.0110           0
     20193 MEMB     173      SAPS     H14R     HEL1     0.150000       1.00800           0
     20194 MEMB     173      SAPS     C215     CEL1    -0.150000       12.0110           0
     20195 MEMB     173      SAPS     H15R     HEL1     0.150000       1.00800           0
     20196 MEMB     173      SAPS     C216     CTL2    -0.180000       12.0110           0
     20197 MEMB     173      SAPS     H16R     HAL2     0.900000E-01   1.00800           0
     20198 MEMB     173      SAPS     H16S     HAL2     0.900000E-01   1.00800           0
     20199 MEMB     173      SAPS     C217     CTL2    -0.180000       12.0110           0
     20200 MEMB     173      SAPS     H17R     HAL2     0.900000E-01   1.00800           0
     20201 MEMB     173      SAPS     H17S     HAL2     0.900000E-01   1.00800           0
     20202 MEMB     173      SAPS     C218     CTL2    -0.180000       12.0110           0
     20203 MEMB     173      SAPS     H18R     HAL2     0.900000E-01   1.00800           0
     20204 MEMB     173      SAPS     H18S     HAL2     0.900000E-01   1.00800           0
     20205 MEMB     173      SAPS     C219     CTL2    -0.180000       12.0110           0
     20206 MEMB     173      SAPS     H19R     HAL2     0.900000E-01   1.00800           0
     20207 MEMB     173      SAPS     H19S     HAL2     0.900000E-01   1.00800           0
     20208 MEMB     173      SAPS     C220     CTL3    -0.270000       12.0110           0
     20209 MEMB     173      SAPS     H20R     HAL3     0.900000E-01   1.00800           0
     20210 MEMB     173      SAPS     H20S     HAL3     0.900000E-01   1.00800           0
     20211 MEMB     173      SAPS     H20T     HAL3     0.900000E-01   1.00800           0
     20212 MEMB     173      SAPS     C33      CTL2    -0.180000       12.0110           0
     20213 MEMB     173      SAPS     H3X      HAL2     0.900000E-01   1.00800           0
     20214 MEMB     173      SAPS     H3Y      HAL2     0.900000E-01   1.00800           0
     20215 MEMB     173      SAPS     C34      CTL2    -0.180000       12.0110           0
     20216 MEMB     173      SAPS     H4X      HAL2     0.900000E-01   1.00800           0
     20217 MEMB     173      SAPS     H4Y      HAL2     0.900000E-01   1.00800           0
     20218 MEMB     173      SAPS     C35      CTL2    -0.180000       12.0110           0
     20219 MEMB     173      SAPS     H5X      HAL2     0.900000E-01   1.00800           0
     20220 MEMB     173      SAPS     H5Y      HAL2     0.900000E-01   1.00800           0
     20221 MEMB     173      SAPS     C36      CTL2    -0.180000       12.0110           0
     20222 MEMB     173      SAPS     H6X      HAL2     0.900000E-01   1.00800           0
     20223 MEMB     173      SAPS     H6Y      HAL2     0.900000E-01   1.00800           0
     20224 MEMB     173      SAPS     C37      CTL2    -0.180000       12.0110           0
     20225 MEMB     173      SAPS     H7X      HAL2     0.900000E-01   1.00800           0
     20226 MEMB     173      SAPS     H7Y      HAL2     0.900000E-01   1.00800           0
     20227 MEMB     173      SAPS     C38      CTL2    -0.180000       12.0110           0
     20228 MEMB     173      SAPS     H8X      HAL2     0.900000E-01   1.00800           0
     20229 MEMB     173      SAPS     H8Y      HAL2     0.900000E-01   1.00800           0
     20230 MEMB     173      SAPS     C39      CTL2    -0.180000       12.0110           0
     20231 MEMB     173      SAPS     H9X      HAL2     0.900000E-01   1.00800           0
     20232 MEMB     173      SAPS     H9Y      HAL2     0.900000E-01   1.00800           0
     20233 MEMB     173      SAPS     C310     CTL2    -0.180000       12.0110           0
     20234 MEMB     173      SAPS     H10X     HAL2     0.900000E-01   1.00800           0
     20235 MEMB     173      SAPS     H10Y     HAL2     0.900000E-01   1.00800           0
     20236 MEMB     173      SAPS     C311     CTL2    -0.180000       12.0110           0
     20237 MEMB     173      SAPS     H11X     HAL2     0.900000E-01   1.00800           0
     20238 MEMB     173      SAPS     H11Y     HAL2     0.900000E-01   1.00800           0
     20239 MEMB     173      SAPS     C312     CTL2    -0.180000       12.0110           0
     20240 MEMB     173      SAPS     H12X     HAL2     0.900000E-01   1.00800           0
     20241 MEMB     173      SAPS     H12Y     HAL2     0.900000E-01   1.00800           0
     20242 MEMB     173      SAPS     C313     CTL2    -0.180000       12.0110           0
     20243 MEMB     173      SAPS     H13X     HAL2     0.900000E-01   1.00800           0
     20244 MEMB     173      SAPS     H13Y     HAL2     0.900000E-01   1.00800           0
     20245 MEMB     173      SAPS     C314     CTL2    -0.180000       12.0110           0
     20246 MEMB     173      SAPS     H14X     HAL2     0.900000E-01   1.00800           0
     20247 MEMB     173      SAPS     H14Y     HAL2     0.900000E-01   1.00800           0
     20248 MEMB     173      SAPS     C315     CTL2    -0.180000       12.0110           0
     20249 MEMB     173      SAPS     H15X     HAL2     0.900000E-01   1.00800           0
     20250 MEMB     173      SAPS     H15Y     HAL2     0.900000E-01   1.00800           0
     20251 MEMB     173      SAPS     C316     CTL2    -0.180000       12.0110           0
     20252 MEMB     173      SAPS     H16X     HAL2     0.900000E-01   1.00800           0
     20253 MEMB     173      SAPS     H16Y     HAL2     0.900000E-01   1.00800           0
     20254 MEMB     173      SAPS     C317     CTL2    -0.180000       12.0110           0
     20255 MEMB     173      SAPS     H17X     HAL2     0.900000E-01   1.00800           0
     20256 MEMB     173      SAPS     H17Y     HAL2     0.900000E-01   1.00800           0
     20257 MEMB     173      SAPS     C318     CTL3    -0.270000       12.0110           0
     20258 MEMB     173      SAPS     H18X     HAL3     0.900000E-01   1.00800           0
     20259 MEMB     173      SAPS     H18Y     HAL3     0.900000E-01   1.00800           0
     20260 MEMB     173      SAPS     H18Z     HAL3     0.900000E-01   1.00800           0
     20261 MEMB     174      OSM      N        NTL     -0.600000       14.0070           0
     20262 MEMB     174      OSM      C15      CTL5    -0.350000       12.0110           0
     20263 MEMB     174      OSM      H15A     HL       0.250000       1.00800           0
     20264 MEMB     174      OSM      H15B     HL       0.250000       1.00800           0
     20265 MEMB     174      OSM      H15C     HL       0.250000       1.00800           0
     20266 MEMB     174      OSM      C14      CTL5    -0.350000       12.0110           0
     20267 MEMB     174      OSM      H14A     HL       0.250000       1.00800           0
     20268 MEMB     174      OSM      H14B     HL       0.250000       1.00800           0
     20269 MEMB     174      OSM      H14C     HL       0.250000       1.00800           0
     20270 MEMB     174      OSM      C13      CTL5    -0.350000       12.0110           0
     20271 MEMB     174      OSM      H13A     HL       0.250000       1.00800           0
     20272 MEMB     174      OSM      H13B     HL       0.250000       1.00800           0
     20273 MEMB     174      OSM      H13C     HL       0.250000       1.00800           0
     20274 MEMB     174      OSM      C12      CTL2    -0.100000       12.0110           0
     20275 MEMB     174      OSM      H12A     HL       0.250000       1.00800           0
     20276 MEMB     174      OSM      H12B     HL       0.250000       1.00800           0
     20277 MEMB     174      OSM      C11      CTL2    -0.800000E-01   12.0110           0
     20278 MEMB     174      OSM      H11A     HAL2     0.900000E-01   1.00800           0
     20279 MEMB     174      OSM      H11B     HAL2     0.900000E-01   1.00800           0
     20280 MEMB     174      OSM      P        PL        1.50000       30.9740           0
     20281 MEMB     174      OSM      O13      O2L     -0.780000       15.9994           0
     20282 MEMB     174      OSM      O14      O2L     -0.780000       15.9994           0
     20283 MEMB     174      OSM      O11      OSLP    -0.570000       15.9994           0
     20284 MEMB     174      OSM      O12      OSLP    -0.570000       15.9994           0
     20285 MEMB     174      OSM      C1S      CTL2    -0.800000E-01   12.0110           0
     20286 MEMB     174      OSM      H1S      HAL2     0.900000E-01   1.00800           0
     20287 MEMB     174      OSM      H1T      HAL2     0.900000E-01   1.00800           0
     20288 MEMB     174      OSM      NF       NHL     -0.700000       14.0070           0
     20289 MEMB     174      OSM      HNF      H        0.350000       1.00800           0
     20290 MEMB     174      OSM      C2S      CTL1     0.300000       12.0110           0
     20291 MEMB     174      OSM      H2S      HAL1     0.500000E-01   1.00800           0
     20292 MEMB     174      OSM      C3S      CTO1     0.500000       12.0110           0
     20293 MEMB     174      OSM      H3S      HAL1    -0.110000       1.00800           0
     20294 MEMB     174      OSM      O3       OHL     -0.690000       15.9994           0
     20295 MEMB     174      OSM      HO3      HOL      0.300000       1.00800           0
     20296 MEMB     174      OSM      C4S      CEL3    -0.150000       12.0110           0
     20297 MEMB     174      OSM      H4S      HEL1     0.150000       1.00800           0
     20298 MEMB     174      OSM      C5S      CEL3    -0.150000       12.0110           0
     20299 MEMB     174      OSM      H5S      HEL1     0.150000       1.00800           0
     20300 MEMB     174      OSM      C6S      CTL2    -0.180000       12.0110           0
     20301 MEMB     174      OSM      H6S      HAL2     0.900000E-01   1.00800           0
     20302 MEMB     174      OSM      H6T      HAL2     0.900000E-01   1.00800           0
     20303 MEMB     174      OSM      C7S      CTL2    -0.180000       12.0110           0
     20304 MEMB     174      OSM      H7S      HAL2     0.900000E-01   1.00800           0
     20305 MEMB     174      OSM      H7T      HAL2     0.900000E-01   1.00800           0
     20306 MEMB     174      OSM      C8S      CTL2    -0.180000       12.0110           0
     20307 MEMB     174      OSM      H8S      HAL2     0.900000E-01   1.00800           0
     20308 MEMB     174      OSM      H8T      HAL2     0.900000E-01   1.00800           0
     20309 MEMB     174      OSM      C9S      CTL2    -0.180000       12.0110           0
     20310 MEMB     174      OSM      H9S      HAL2     0.900000E-01   1.00800           0
     20311 MEMB     174      OSM      H9T      HAL2     0.900000E-01   1.00800           0
     20312 MEMB     174      OSM      C10S     CTL2    -0.180000       12.0110           0
     20313 MEMB     174      OSM      H10S     HAL2     0.900000E-01   1.00800           0
     20314 MEMB     174      OSM      H10T     HAL2     0.900000E-01   1.00800           0
     20315 MEMB     174      OSM      C11S     CTL2    -0.180000       12.0110           0
     20316 MEMB     174      OSM      H11S     HAL2     0.900000E-01   1.00800           0
     20317 MEMB     174      OSM      H11T     HAL2     0.900000E-01   1.00800           0
     20318 MEMB     174      OSM      C12S     CTL2    -0.180000       12.0110           0
     20319 MEMB     174      OSM      H12S     HAL2     0.900000E-01   1.00800           0
     20320 MEMB     174      OSM      H12T     HAL2     0.900000E-01   1.00800           0
     20321 MEMB     174      OSM      C13S     CTL2    -0.180000       12.0110           0
     20322 MEMB     174      OSM      H13S     HAL2     0.900000E-01   1.00800           0
     20323 MEMB     174      OSM      H13T     HAL2     0.900000E-01   1.00800           0
     20324 MEMB     174      OSM      C14S     CTL2    -0.180000       12.0110           0
     20325 MEMB     174      OSM      H14S     HAL2     0.900000E-01   1.00800           0
     20326 MEMB     174      OSM      H14T     HAL2     0.900000E-01   1.00800           0
     20327 MEMB     174      OSM      C15S     CTL2    -0.180000       12.0110           0
     20328 MEMB     174      OSM      H15S     HAL2     0.900000E-01   1.00800           0
     20329 MEMB     174      OSM      H15T     HAL2     0.900000E-01   1.00800           0
     20330 MEMB     174      OSM      C16S     CTL2    -0.180000       12.0110           0
     20331 MEMB     174      OSM      H16S     HAL2     0.900000E-01   1.00800           0
     20332 MEMB     174      OSM      H16T     HAL2     0.900000E-01   1.00800           0
     20333 MEMB     174      OSM      C17S     CTL2    -0.180000       12.0110           0
     20334 MEMB     174      OSM      H17S     HAL2     0.900000E-01   1.00800           0
     20335 MEMB     174      OSM      H17T     HAL2     0.900000E-01   1.00800           0
     20336 MEMB     174      OSM      C18S     CTL3    -0.270000       12.0110           0
     20337 MEMB     174      OSM      H18S     HAL3     0.900000E-01   1.00800           0
     20338 MEMB     174      OSM      H18T     HAL3     0.900000E-01   1.00800           0
     20339 MEMB     174      OSM      H18U     HAL3     0.900000E-01   1.00800           0
     20340 MEMB     174      OSM      C1F      C        0.550000       12.0110           0
     20341 MEMB     174      OSM      OF       O       -0.600000       15.9994           0
     20342 MEMB     174      OSM      C2F      CTL2    -0.700000E-01   12.0110           0
     20343 MEMB     174      OSM      H2F      HAL2     0.600000E-01   1.00800           0
     20344 MEMB     174      OSM      H2G      HAL2     0.600000E-01   1.00800           0
     20345 MEMB     174      OSM      C3F      CTL2    -0.180000       12.0110           0
     20346 MEMB     174      OSM      H3F      HAL2     0.900000E-01   1.00800           0
     20347 MEMB     174      OSM      H3G      HAL2     0.900000E-01   1.00800           0
     20348 MEMB     174      OSM      C4F      CTL2    -0.180000       12.0110           0
     20349 MEMB     174      OSM      H4F      HAL2     0.900000E-01   1.00800           0
     20350 MEMB     174      OSM      H4G      HAL2     0.900000E-01   1.00800           0
     20351 MEMB     174      OSM      C5F      CTL2    -0.180000       12.0110           0
     20352 MEMB     174      OSM      H5F      HAL2     0.900000E-01   1.00800           0
     20353 MEMB     174      OSM      H5G      HAL2     0.900000E-01   1.00800           0
     20354 MEMB     174      OSM      C6F      CTL2    -0.180000       12.0110           0
     20355 MEMB     174      OSM      H6F      HAL2     0.900000E-01   1.00800           0
     20356 MEMB     174      OSM      H6G      HAL2     0.900000E-01   1.00800           0
     20357 MEMB     174      OSM      C7F      CTL2    -0.180000       12.0110           0
     20358 MEMB     174      OSM      H7F      HAL2     0.900000E-01   1.00800           0
     20359 MEMB     174      OSM      H7G      HAL2     0.900000E-01   1.00800           0
     20360 MEMB     174      OSM      C8F      CTL2    -0.180000       12.0110           0
     20361 MEMB     174      OSM      H8F      HAL2     0.900000E-01   1.00800           0
     20362 MEMB     174      OSM      H8G      HAL2     0.900000E-01   1.00800           0
     20363 MEMB     174      OSM      C9F      CEL1    -0.150000       12.0110           0
     20364 MEMB     174      OSM      H9F      HEL1     0.150000       1.00800           0
     20365 MEMB     174      OSM      C10F     CEL1    -0.150000       12.0110           0
     20366 MEMB     174      OSM      H10F     HEL1     0.150000       1.00800           0
     20367 MEMB     174      OSM      C11F     CTL2    -0.180000       12.0110           0
     20368 MEMB     174      OSM      H11F     HAL2     0.900000E-01   1.00800           0
     20369 MEMB     174      OSM      H11G     HAL2     0.900000E-01   1.00800           0
     20370 MEMB     174      OSM      C12F     CTL2    -0.180000       12.0110           0
     20371 MEMB     174      OSM      H12F     HAL2     0.900000E-01   1.00800           0
     20372 MEMB     174      OSM      H12G     HAL2     0.900000E-01   1.00800           0
     20373 MEMB     174      OSM      C13F     CTL2    -0.180000       12.0110           0
     20374 MEMB     174      OSM      H13F     HAL2     0.900000E-01   1.00800           0
     20375 MEMB     174      OSM      H13G     HAL2     0.900000E-01   1.00800           0
     20376 MEMB     174      OSM      C14F     CTL2    -0.180000       12.0110           0
     20377 MEMB     174      OSM      H14F     HAL2     0.900000E-01   1.00800           0
     20378 MEMB     174      OSM      H14G     HAL2     0.900000E-01   1.00800           0
     20379 MEMB     174      OSM      C15F     CTL2    -0.180000       12.0110           0
     20380 MEMB     174      OSM      H15F     HAL2     0.900000E-01   1.00800           0
     20381 MEMB     174      OSM      H15G     HAL2     0.900000E-01   1.00800           0
     20382 MEMB     174      OSM      C16F     CTL2    -0.180000       12.0110           0
     20383 MEMB     174      OSM      H16F     HAL2     0.900000E-01   1.00800           0
     20384 MEMB     174      OSM      H16G     HAL2     0.900000E-01   1.00800           0
     20385 MEMB     174      OSM      C17F     CTL2    -0.180000       12.0110           0
     20386 MEMB     174      OSM      H17F     HAL2     0.900000E-01   1.00800           0
     20387 MEMB     174      OSM      H17G     HAL2     0.900000E-01   1.00800           0
     20388 MEMB     174      OSM      C18F     CTL3    -0.270000       12.0110           0
     20389 MEMB     174      OSM      H18F     HAL3     0.900000E-01   1.00800           0
     20390 MEMB     174      OSM      H18G     HAL3     0.900000E-01   1.00800           0
     20391 MEMB     174      OSM      H18H     HAL3     0.900000E-01   1.00800           0
     20392 MEMB     175      SLPC     N        NTL     -0.600000       14.0070           0
     20393 MEMB     175      SLPC     C13      CTL5    -0.350000       12.0110           0
     20394 MEMB     175      SLPC     H13A     HL       0.250000       1.00800           0
     20395 MEMB     175      SLPC     H13B     HL       0.250000       1.00800           0
     20396 MEMB     175      SLPC     H13C     HL       0.250000       1.00800           0
     20397 MEMB     175      SLPC     C14      CTL5    -0.350000       12.0110           0
     20398 MEMB     175      SLPC     H14A     HL       0.250000       1.00800           0
     20399 MEMB     175      SLPC     H14B     HL       0.250000       1.00800           0
     20400 MEMB     175      SLPC     H14C     HL       0.250000       1.00800           0
     20401 MEMB     175      SLPC     C15      CTL5    -0.350000       12.0110           0
     20402 MEMB     175      SLPC     H15A     HL       0.250000       1.00800           0
     20403 MEMB     175      SLPC     H15B     HL       0.250000       1.00800           0
     20404 MEMB     175      SLPC     H15C     HL       0.250000       1.00800           0
     20405 MEMB     175      SLPC     C12      CTL2    -0.100000       12.0110           0
     20406 MEMB     175      SLPC     H12A     HL       0.250000       1.00800           0
     20407 MEMB     175      SLPC     H12B     HL       0.250000       1.00800           0
     20408 MEMB     175      SLPC     C11      CTL2    -0.800000E-01   12.0110           0
     20409 MEMB     175      SLPC     H11A     HAL2     0.900000E-01   1.00800           0
     20410 MEMB     175      SLPC     H11B     HAL2     0.900000E-01   1.00800           0
     20411 MEMB     175      SLPC     P        PL        1.50000       30.9740           0
     20412 MEMB     175      SLPC     O13      O2L     -0.780000       15.9994           0
     20413 MEMB     175      SLPC     O14      O2L     -0.780000       15.9994           0
     20414 MEMB     175      SLPC     O12      OSLP    -0.570000       15.9994           0
     20415 MEMB     175      SLPC     O11      OSLP    -0.570000       15.9994           0
     20416 MEMB     175      SLPC     C1       CTL2    -0.800000E-01   12.0110           0
     20417 MEMB     175      SLPC     HA       HAL2     0.900000E-01   1.00800           0
     20418 MEMB     175      SLPC     HB       HAL2     0.900000E-01   1.00800           0
     20419 MEMB     175      SLPC     C2       CTL1     0.170000       12.0110           0
     20420 MEMB     175      SLPC     HS       HAL1     0.900000E-01   1.00800           0
     20421 MEMB     175      SLPC     O21      OSL     -0.490000       15.9994           0
     20422 MEMB     175      SLPC     C21      CL       0.900000       12.0110           0
     20423 MEMB     175      SLPC     O22      OBL     -0.630000       15.9994           0
     20424 MEMB     175      SLPC     C22      CTL2    -0.220000       12.0110           0
     20425 MEMB     175      SLPC     H2R      HAL2     0.900000E-01   1.00800           0
     20426 MEMB     175      SLPC     H2S      HAL2     0.900000E-01   1.00800           0
     20427 MEMB     175      SLPC     C3       CTL2     0.800000E-01   12.0110           0
     20428 MEMB     175      SLPC     HX       HAL2     0.900000E-01   1.00800           0
     20429 MEMB     175      SLPC     HY       HAL2     0.900000E-01   1.00800           0
     20430 MEMB     175      SLPC     O31      OSL     -0.490000       15.9994           0
     20431 MEMB     175      SLPC     C31      CL       0.900000       12.0110           0
     20432 MEMB     175      SLPC     O32      OBL     -0.630000       15.9994           0
     20433 MEMB     175      SLPC     C32      CTL2    -0.220000       12.0110           0
     20434 MEMB     175      SLPC     H2X      HAL2     0.900000E-01   1.00800           0
     20435 MEMB     175      SLPC     H2Y      HAL2     0.900000E-01   1.00800           0
     20436 MEMB     175      SLPC     C23      CTL2    -0.180000       12.0110           0
     20437 MEMB     175      SLPC     H3R      HAL2     0.900000E-01   1.00800           0
     20438 MEMB     175      SLPC     H3S      HAL2     0.900000E-01   1.00800           0
     20439 MEMB     175      SLPC     C24      CTL2    -0.180000       12.0110           0
     20440 MEMB     175      SLPC     H4R      HAL2     0.900000E-01   1.00800           0
     20441 MEMB     175      SLPC     H4S      HAL2     0.900000E-01   1.00800           0
     20442 MEMB     175      SLPC     C25      CTL2    -0.180000       12.0110           0
     20443 MEMB     175      SLPC     H5R      HAL2     0.900000E-01   1.00800           0
     20444 MEMB     175      SLPC     H5S      HAL2     0.900000E-01   1.00800           0
     20445 MEMB     175      SLPC     C26      CTL2    -0.180000       12.0110           0
     20446 MEMB     175      SLPC     H6R      HAL2     0.900000E-01   1.00800           0
     20447 MEMB     175      SLPC     H6S      HAL2     0.900000E-01   1.00800           0
     20448 MEMB     175      SLPC     C27      CTL2    -0.180000       12.0110           0
     20449 MEMB     175      SLPC     H7R      HAL2     0.900000E-01   1.00800           0
     20450 MEMB     175      SLPC     H7S      HAL2     0.900000E-01   1.00800           0
     20451 MEMB     175      SLPC     C28      CTL2    -0.180000       12.0110           0
     20452 MEMB     175      SLPC     H8R      HAL2     0.900000E-01   1.00800           0
     20453 MEMB     175      SLPC     H8S      HAL2     0.900000E-01   1.00800           0
     20454 MEMB     175      SLPC     C29      CEL1    -0.150000       12.0110           0
     20455 MEMB     175      SLPC     H9R      HEL1     0.150000       1.00800           0
     20456 MEMB     175      SLPC     C210     CEL1    -0.150000       12.0110           0
     20457 MEMB     175      SLPC     H10R     HEL1     0.150000       1.00800           0
     20458 MEMB     175      SLPC     C211     CTL2    -0.180000       12.0110           0
     20459 MEMB     175      SLPC     H11R     HAL2     0.900000E-01   1.00800           0
     20460 MEMB     175      SLPC     H11S     HAL2     0.900000E-01   1.00800           0
     20461 MEMB     175      SLPC     C212     CEL1    -0.150000       12.0110           0
     20462 MEMB     175      SLPC     H12R     HEL1     0.150000       1.00800           0
     20463 MEMB     175      SLPC     C213     CEL1    -0.150000       12.0110           0
     20464 MEMB     175      SLPC     H13R     HEL1     0.150000       1.00800           0
     20465 MEMB     175      SLPC     C214     CTL2    -0.180000       12.0110           0
     20466 MEMB     175      SLPC     H14R     HAL2     0.900000E-01   1.00800           0
     20467 MEMB     175      SLPC     H14S     HAL2     0.900000E-01   1.00800           0
     20468 MEMB     175      SLPC     C215     CTL2    -0.180000       12.0110           0
     20469 MEMB     175      SLPC     H15R     HAL2     0.900000E-01   1.00800           0
     20470 MEMB     175      SLPC     H15S     HAL2     0.900000E-01   1.00800           0
     20471 MEMB     175      SLPC     C216     CTL2    -0.180000       12.0110           0
     20472 MEMB     175      SLPC     H16R     HAL2     0.900000E-01   1.00800           0
     20473 MEMB     175      SLPC     H16S     HAL2     0.900000E-01   1.00800           0
     20474 MEMB     175      SLPC     C217     CTL2    -0.180000       12.0110           0
     20475 MEMB     175      SLPC     H17R     HAL2     0.900000E-01   1.00800           0
     20476 MEMB     175      SLPC     H17S     HAL2     0.900000E-01   1.00800           0
     20477 MEMB     175      SLPC     C218     CTL3    -0.270000       12.0110           0
     20478 MEMB     175      SLPC     H18R     HAL3     0.900000E-01   1.00800           0
     20479 MEMB     175      SLPC     H18S     HAL3     0.900000E-01   1.00800           0
     20480 MEMB     175      SLPC     H18T     HAL3     0.900000E-01   1.00800           0
     20481 MEMB     175      SLPC     C33      CTL2    -0.180000       12.0110           0
     20482 MEMB     175      SLPC     H3X      HAL2     0.900000E-01   1.00800           0
     20483 MEMB     175      SLPC     H3Y      HAL2     0.900000E-01   1.00800           0
     20484 MEMB     175      SLPC     C34      CTL2    -0.180000       12.0110           0
     20485 MEMB     175      SLPC     H4X      HAL2     0.900000E-01   1.00800           0
     20486 MEMB     175      SLPC     H4Y      HAL2     0.900000E-01   1.00800           0
     20487 MEMB     175      SLPC     C35      CTL2    -0.180000       12.0110           0
     20488 MEMB     175      SLPC     H5X      HAL2     0.900000E-01   1.00800           0
     20489 MEMB     175      SLPC     H5Y      HAL2     0.900000E-01   1.00800           0
     20490 MEMB     175      SLPC     C36      CTL2    -0.180000       12.0110           0
     20491 MEMB     175      SLPC     H6X      HAL2     0.900000E-01   1.00800           0
     20492 MEMB     175      SLPC     H6Y      HAL2     0.900000E-01   1.00800           0
     20493 MEMB     175      SLPC     C37      CTL2    -0.180000       12.0110           0
     20494 MEMB     175      SLPC     H7X      HAL2     0.900000E-01   1.00800           0
     20495 MEMB     175      SLPC     H7Y      HAL2     0.900000E-01   1.00800           0
     20496 MEMB     175      SLPC     C38      CTL2    -0.180000       12.0110           0
     20497 MEMB     175      SLPC     H8X      HAL2     0.900000E-01   1.00800           0
     20498 MEMB     175      SLPC     H8Y      HAL2     0.900000E-01   1.00800           0
     20499 MEMB     175      SLPC     C39      CTL2    -0.180000       12.0110           0
     20500 MEMB     175      SLPC     H9X      HAL2     0.900000E-01   1.00800           0
     20501 MEMB     175      SLPC     H9Y      HAL2     0.900000E-01   1.00800           0
     20502 MEMB     175      SLPC     C310     CTL2    -0.180000       12.0110           0
     20503 MEMB     175      SLPC     H10X     HAL2     0.900000E-01   1.00800           0
     20504 MEMB     175      SLPC     H10Y     HAL2     0.900000E-01   1.00800           0
     20505 MEMB     175      SLPC     C311     CTL2    -0.180000       12.0110           0
     20506 MEMB     175      SLPC     H11X     HAL2     0.900000E-01   1.00800           0
     20507 MEMB     175      SLPC     H11Y     HAL2     0.900000E-01   1.00800           0
     20508 MEMB     175      SLPC     C312     CTL2    -0.180000       12.0110           0
     20509 MEMB     175      SLPC     H12X     HAL2     0.900000E-01   1.00800           0
     20510 MEMB     175      SLPC     H12Y     HAL2     0.900000E-01   1.00800           0
     20511 MEMB     175      SLPC     C313     CTL2    -0.180000       12.0110           0
     20512 MEMB     175      SLPC     H13X     HAL2     0.900000E-01   1.00800           0
     20513 MEMB     175      SLPC     H13Y     HAL2     0.900000E-01   1.00800           0
     20514 MEMB     175      SLPC     C314     CTL2    -0.180000       12.0110           0
     20515 MEMB     175      SLPC     H14X     HAL2     0.900000E-01   1.00800           0
     20516 MEMB     175      SLPC     H14Y     HAL2     0.900000E-01   1.00800           0
     20517 MEMB     175      SLPC     C315     CTL2    -0.180000       12.0110           0
     20518 MEMB     175      SLPC     H15X     HAL2     0.900000E-01   1.00800           0
     20519 MEMB     175      SLPC     H15Y     HAL2     0.900000E-01   1.00800           0
     20520 MEMB     175      SLPC     C316     CTL2    -0.180000       12.0110           0
     20521 MEMB     175      SLPC     H16X     HAL2     0.900000E-01   1.00800           0
     20522 MEMB     175      SLPC     H16Y     HAL2     0.900000E-01   1.00800           0
     20523 MEMB     175      SLPC     C317     CTL2    -0.180000       12.0110           0
     20524 MEMB     175      SLPC     H17X     HAL2     0.900000E-01   1.00800           0
     20525 MEMB     175      SLPC     H17Y     HAL2     0.900000E-01   1.00800           0
     20526 MEMB     175      SLPC     C318     CTL3    -0.270000       12.0110           0
     20527 MEMB     175      SLPC     H18X     HAL3     0.900000E-01   1.00800           0
     20528 MEMB     175      SLPC     H18Y     HAL3     0.900000E-01   1.00800           0
     20529 MEMB     175      SLPC     H18Z     HAL3     0.900000E-01   1.00800           0
     20530 MEMB     176      CHL1     C3       CRL1     0.140000       12.0110           0
     20531 MEMB     176      CHL1     H3       HGA1     0.900000E-01   1.00800           0
     20532 MEMB     176      CHL1     O3       OHL     -0.660000       15.9994           0
     20533 MEMB     176      CHL1     H3'      HOL      0.430000       1.00800           0
     20534 MEMB     176      CHL1     C4       CRL2    -0.180000       12.0110           0
     20535 MEMB     176      CHL1     H4A      HGA2     0.900000E-01   1.00800           0
     20536 MEMB     176      CHL1     H4B      HGA2     0.900000E-01   1.00800           0
     20537 MEMB     176      CHL1     C5       CEL1      0.00000       12.0110           0
     20538 MEMB     176      CHL1     C6       CEL1    -0.150000       12.0110           0
     20539 MEMB     176      CHL1     H6       HEL1     0.150000       1.00800           0
     20540 MEMB     176      CHL1     C7       CRL2    -0.180000       12.0110           0
     20541 MEMB     176      CHL1     H7A      HGA2     0.900000E-01   1.00800           0
     20542 MEMB     176      CHL1     H7B      HGA2     0.900000E-01   1.00800           0
     20543 MEMB     176      CHL1     C8       CRL1    -0.900000E-01   12.0110           0
     20544 MEMB     176      CHL1     H8       HGA1     0.900000E-01   1.00800           0
     20545 MEMB     176      CHL1     C14      CRL1    -0.900000E-01   12.0110           0
     20546 MEMB     176      CHL1     H14      HGA1     0.900000E-01   1.00800           0
     20547 MEMB     176      CHL1     C15      CRL2    -0.180000       12.0110           0
     20548 MEMB     176      CHL1     H15A     HGA2     0.900000E-01   1.00800           0
     20549 MEMB     176      CHL1     H15B     HGA2     0.900000E-01   1.00800           0
     20550 MEMB     176      CHL1     C16      CRL2    -0.180000       12.0110           0
     20551 MEMB     176      CHL1     H16A     HGA2     0.900000E-01   1.00800           0
     20552 MEMB     176      CHL1     H16B     HGA2     0.900000E-01   1.00800           0
     20553 MEMB     176      CHL1     C17      CRL1    -0.900000E-01   12.0110           0
     20554 MEMB     176      CHL1     H17      HGA1     0.900000E-01   1.00800           0
     20555 MEMB     176      CHL1     C13      CRL1      0.00000       12.0110           0
     20556 MEMB     176      CHL1     C18      CTL3    -0.270000       12.0110           0
     20557 MEMB     176      CHL1     H18A     HAL3     0.900000E-01   1.00800           0
     20558 MEMB     176      CHL1     H18B     HAL3     0.900000E-01   1.00800           0
     20559 MEMB     176      CHL1     H18C     HAL3     0.900000E-01   1.00800           0
     20560 MEMB     176      CHL1     C12      CRL2    -0.180000       12.0110           0
     20561 MEMB     176      CHL1     H12A     HGA2     0.900000E-01   1.00800           0
     20562 MEMB     176      CHL1     H12B     HGA2     0.900000E-01   1.00800           0
     20563 MEMB     176      CHL1     C11      CRL2    -0.180000       12.0110           0
     20564 MEMB     176      CHL1     H11A     HGA2     0.900000E-01   1.00800           0
     20565 MEMB     176      CHL1     H11B     HGA2     0.900000E-01   1.00800           0
     20566 MEMB     176      CHL1     C9       CRL1    -0.900000E-01   12.0110           0
     20567 MEMB     176      CHL1     H9       HGA1     0.900000E-01   1.00800           0
     20568 MEMB     176      CHL1     C10      CRL1      0.00000       12.0110           0
     20569 MEMB     176      CHL1     C19      CTL3    -0.270000       12.0110           0
     20570 MEMB     176      CHL1     H19A     HAL3     0.900000E-01   1.00800           0
     20571 MEMB     176      CHL1     H19B     HAL3     0.900000E-01   1.00800           0
     20572 MEMB     176      CHL1     H19C     HAL3     0.900000E-01   1.00800           0
     20573 MEMB     176      CHL1     C1       CRL2    -0.180000       12.0110           0
     20574 MEMB     176      CHL1     H1A      HGA2     0.900000E-01   1.00800           0
     20575 MEMB     176      CHL1     H1B      HGA2     0.900000E-01   1.00800           0
     20576 MEMB     176      CHL1     C2       CRL2    -0.180000       12.0110           0
     20577 MEMB     176      CHL1     H2A      HGA2     0.900000E-01   1.00800           0
     20578 MEMB     176      CHL1     H2B      HGA2     0.900000E-01   1.00800           0
     20579 MEMB     176      CHL1     C20      CTL1    -0.900000E-01   12.0110           0
     20580 MEMB     176      CHL1     H20      HAL1     0.900000E-01   1.00800           0
     20581 MEMB     176      CHL1     C21      CTL3    -0.270000       12.0110           0
     20582 MEMB     176      CHL1     H21A     HAL3     0.900000E-01   1.00800           0
     20583 MEMB     176      CHL1     H21B     HAL3     0.900000E-01   1.00800           0
     20584 MEMB     176      CHL1     H21C     HAL3     0.900000E-01   1.00800           0
     20585 MEMB     176      CHL1     C22      CTL2    -0.180000       12.0110           0
     20586 MEMB     176      CHL1     H22A     HAL2     0.900000E-01   1.00800           0
     20587 MEMB     176      CHL1     H22B     HAL2     0.900000E-01   1.00800           0
     20588 MEMB     176      CHL1     C23      CTL2    -0.180000       12.0110           0
     20589 MEMB     176      CHL1     H23A     HAL2     0.900000E-01   1.00800           0
     20590 MEMB     176      CHL1     H23B     HAL2     0.900000E-01   1.00800           0
     20591 MEMB     176      CHL1     C24      CTL2    -0.180000       12.0110           0
     20592 MEMB     176      CHL1     H24A     HAL2     0.900000E-01   1.00800           0
     20593 MEMB     176      CHL1     H24B     HAL2     0.900000E-01   1.00800           0
     20594 MEMB     176      CHL1     C25      CTL1    -0.900000E-01   12.0110           0
     20595 MEMB     176      CHL1     H25      HAL1     0.900000E-01   1.00800           0
     20596 MEMB     176      CHL1     C26      CTL3    -0.270000       12.0110           0
     20597 MEMB     176      CHL1     H26A     HAL3     0.900000E-01   1.00800           0
     20598 MEMB     176      CHL1     H26B     HAL3     0.900000E-01   1.00800           0
     20599 MEMB     176      CHL1     H26C     HAL3     0.900000E-01   1.00800           0
     20600 MEMB     176      CHL1     C27      CTL3    -0.270000       12.0110           0
     20601 MEMB     176      CHL1     H27A     HAL3     0.900000E-01   1.00800           0
     20602 MEMB     176      CHL1     H27B     HAL3     0.900000E-01   1.00800           0
     20603 MEMB     176      CHL1     H27C     HAL3     0.900000E-01   1.00800           0
     20604 MEMB     177      CHL1     C3       CRL1     0.140000       12.0110           0
     20605 MEMB     177      CHL1     H3       HGA1     0.900000E-01   1.00800           0
     20606 MEMB     177      CHL1     O3       OHL     -0.660000       15.9994           0
     20607 MEMB     177      CHL1     H3'      HOL      0.430000       1.00800           0
     20608 MEMB     177      CHL1     C4       CRL2    -0.180000       12.0110           0
     20609 MEMB     177      CHL1     H4A      HGA2     0.900000E-01   1.00800           0
     20610 MEMB     177      CHL1     H4B      HGA2     0.900000E-01   1.00800           0
     20611 MEMB     177      CHL1     C5       CEL1      0.00000       12.0110           0
     20612 MEMB     177      CHL1     C6       CEL1    -0.150000       12.0110           0
     20613 MEMB     177      CHL1     H6       HEL1     0.150000       1.00800           0
     20614 MEMB     177      CHL1     C7       CRL2    -0.180000       12.0110           0
     20615 MEMB     177      CHL1     H7A      HGA2     0.900000E-01   1.00800           0
     20616 MEMB     177      CHL1     H7B      HGA2     0.900000E-01   1.00800           0
     20617 MEMB     177      CHL1     C8       CRL1    -0.900000E-01   12.0110           0
     20618 MEMB     177      CHL1     H8       HGA1     0.900000E-01   1.00800           0
     20619 MEMB     177      CHL1     C14      CRL1    -0.900000E-01   12.0110           0
     20620 MEMB     177      CHL1     H14      HGA1     0.900000E-01   1.00800           0
     20621 MEMB     177      CHL1     C15      CRL2    -0.180000       12.0110           0
     20622 MEMB     177      CHL1     H15A     HGA2     0.900000E-01   1.00800           0
     20623 MEMB     177      CHL1     H15B     HGA2     0.900000E-01   1.00800           0
     20624 MEMB     177      CHL1     C16      CRL2    -0.180000       12.0110           0
     20625 MEMB     177      CHL1     H16A     HGA2     0.900000E-01   1.00800           0
     20626 MEMB     177      CHL1     H16B     HGA2     0.900000E-01   1.00800           0
     20627 MEMB     177      CHL1     C17      CRL1    -0.900000E-01   12.0110           0
     20628 MEMB     177      CHL1     H17      HGA1     0.900000E-01   1.00800           0
     20629 MEMB     177      CHL1     C13      CRL1      0.00000       12.0110           0
     20630 MEMB     177      CHL1     C18      CTL3    -0.270000       12.0110           0
     20631 MEMB     177      CHL1     H18A     HAL3     0.900000E-01   1.00800           0
     20632 MEMB     177      CHL1     H18B     HAL3     0.900000E-01   1.00800           0
     20633 MEMB     177      CHL1     H18C     HAL3     0.900000E-01   1.00800           0
     20634 MEMB     177      CHL1     C12      CRL2    -0.180000       12.0110           0
     20635 MEMB     177      CHL1     H12A     HGA2     0.900000E-01   1.00800           0
     20636 MEMB     177      CHL1     H12B     HGA2     0.900000E-01   1.00800           0
     20637 MEMB     177      CHL1     C11      CRL2    -0.180000       12.0110           0
     20638 MEMB     177      CHL1     H11A     HGA2     0.900000E-01   1.00800           0
     20639 MEMB     177      CHL1     H11B     HGA2     0.900000E-01   1.00800           0
     20640 MEMB     177      CHL1     C9       CRL1    -0.900000E-01   12.0110           0
     20641 MEMB     177      CHL1     H9       HGA1     0.900000E-01   1.00800           0
     20642 MEMB     177      CHL1     C10      CRL1      0.00000       12.0110           0
     20643 MEMB     177      CHL1     C19      CTL3    -0.270000       12.0110           0
     20644 MEMB     177      CHL1     H19A     HAL3     0.900000E-01   1.00800           0
     20645 MEMB     177      CHL1     H19B     HAL3     0.900000E-01   1.00800           0
     20646 MEMB     177      CHL1     H19C     HAL3     0.900000E-01   1.00800           0
     20647 MEMB     177      CHL1     C1       CRL2    -0.180000       12.0110           0
     20648 MEMB     177      CHL1     H1A      HGA2     0.900000E-01   1.00800           0
     20649 MEMB     177      CHL1     H1B      HGA2     0.900000E-01   1.00800           0
     20650 MEMB     177      CHL1     C2       CRL2    -0.180000       12.0110           0
     20651 MEMB     177      CHL1     H2A      HGA2     0.900000E-01   1.00800           0
     20652 MEMB     177      CHL1     H2B      HGA2     0.900000E-01   1.00800           0
     20653 MEMB     177      CHL1     C20      CTL1    -0.900000E-01   12.0110           0
     20654 MEMB     177      CHL1     H20      HAL1     0.900000E-01   1.00800           0
     20655 MEMB     177      CHL1     C21      CTL3    -0.270000       12.0110           0
     20656 MEMB     177      CHL1     H21A     HAL3     0.900000E-01   1.00800           0
     20657 MEMB     177      CHL1     H21B     HAL3     0.900000E-01   1.00800           0
     20658 MEMB     177      CHL1     H21C     HAL3     0.900000E-01   1.00800           0
     20659 MEMB     177      CHL1     C22      CTL2    -0.180000       12.0110           0
     20660 MEMB     177      CHL1     H22A     HAL2     0.900000E-01   1.00800           0
     20661 MEMB     177      CHL1     H22B     HAL2     0.900000E-01   1.00800           0
     20662 MEMB     177      CHL1     C23      CTL2    -0.180000       12.0110           0
     20663 MEMB     177      CHL1     H23A     HAL2     0.900000E-01   1.00800           0
     20664 MEMB     177      CHL1     H23B     HAL2     0.900000E-01   1.00800           0
     20665 MEMB     177      CHL1     C24      CTL2    -0.180000       12.0110           0
     20666 MEMB     177      CHL1     H24A     HAL2     0.900000E-01   1.00800           0
     20667 MEMB     177      CHL1     H24B     HAL2     0.900000E-01   1.00800           0
     20668 MEMB     177      CHL1     C25      CTL1    -0.900000E-01   12.0110           0
     20669 MEMB     177      CHL1     H25      HAL1     0.900000E-01   1.00800           0
     20670 MEMB     177      CHL1     C26      CTL3    -0.270000       12.0110           0
     20671 MEMB     177      CHL1     H26A     HAL3     0.900000E-01   1.00800           0
     20672 MEMB     177      CHL1     H26B     HAL3     0.900000E-01   1.00800           0
     20673 MEMB     177      CHL1     H26C     HAL3     0.900000E-01   1.00800           0
     20674 MEMB     177      CHL1     C27      CTL3    -0.270000       12.0110           0
     20675 MEMB     177      CHL1     H27A     HAL3     0.900000E-01   1.00800           0
     20676 MEMB     177      CHL1     H27B     HAL3     0.900000E-01   1.00800           0
     20677 MEMB     177      CHL1     H27C     HAL3     0.900000E-01   1.00800           0
     20678 MEMB     178      SAPC     N        NTL     -0.600000       14.0070           0
     20679 MEMB     178      SAPC     C12      CTL2    -0.100000       12.0110           0
     20680 MEMB     178      SAPC     H12A     HL       0.250000       1.00800           0
     20681 MEMB     178      SAPC     H12B     HL       0.250000       1.00800           0
     20682 MEMB     178      SAPC     C13      CTL5    -0.350000       12.0110           0
     20683 MEMB     178      SAPC     H13A     HL       0.250000       1.00800           0
     20684 MEMB     178      SAPC     H13B     HL       0.250000       1.00800           0
     20685 MEMB     178      SAPC     H13C     HL       0.250000       1.00800           0
     20686 MEMB     178      SAPC     C14      CTL5    -0.350000       12.0110           0
     20687 MEMB     178      SAPC     H14A     HL       0.250000       1.00800           0
     20688 MEMB     178      SAPC     H14B     HL       0.250000       1.00800           0
     20689 MEMB     178      SAPC     H14C     HL       0.250000       1.00800           0
     20690 MEMB     178      SAPC     C15      CTL5    -0.350000       12.0110           0
     20691 MEMB     178      SAPC     H15A     HL       0.250000       1.00800           0
     20692 MEMB     178      SAPC     H15B     HL       0.250000       1.00800           0
     20693 MEMB     178      SAPC     H15C     HL       0.250000       1.00800           0
     20694 MEMB     178      SAPC     C11      CTL2    -0.800000E-01   12.0110           0
     20695 MEMB     178      SAPC     H11A     HAL2     0.900000E-01   1.00800           0
     20696 MEMB     178      SAPC     H11B     HAL2     0.900000E-01   1.00800           0
     20697 MEMB     178      SAPC     P        PL        1.50000       30.9740           0
     20698 MEMB     178      SAPC     O13      O2L     -0.780000       15.9994           0
     20699 MEMB     178      SAPC     O14      O2L     -0.780000       15.9994           0
     20700 MEMB     178      SAPC     O12      OSLP    -0.570000       15.9994           0
     20701 MEMB     178      SAPC     O11      OSLP    -0.570000       15.9994           0
     20702 MEMB     178      SAPC     C1       CTL2    -0.800000E-01   12.0110           0
     20703 MEMB     178      SAPC     HA       HAL2     0.900000E-01   1.00800           0
     20704 MEMB     178      SAPC     HB       HAL2     0.900000E-01   1.00800           0
     20705 MEMB     178      SAPC     C2       CTL1     0.170000       12.0110           0
     20706 MEMB     178      SAPC     HS       HAL1     0.900000E-01   1.00800           0
     20707 MEMB     178      SAPC     O21      OSL     -0.490000       15.9994           0
     20708 MEMB     178      SAPC     C21      CL       0.900000       12.0110           0
     20709 MEMB     178      SAPC     O22      OBL     -0.630000       15.9994           0
     20710 MEMB     178      SAPC     C22      CTL2    -0.220000       12.0110           0
     20711 MEMB     178      SAPC     H2R      HAL2     0.900000E-01   1.00800           0
     20712 MEMB     178      SAPC     H2S      HAL2     0.900000E-01   1.00800           0
     20713 MEMB     178      SAPC     C3       CTL2     0.800000E-01   12.0110           0
     20714 MEMB     178      SAPC     HX       HAL2     0.900000E-01   1.00800           0
     20715 MEMB     178      SAPC     HY       HAL2     0.900000E-01   1.00800           0
     20716 MEMB     178      SAPC     O31      OSL     -0.490000       15.9994           0
     20717 MEMB     178      SAPC     C31      CL       0.900000       12.0110           0
     20718 MEMB     178      SAPC     O32      OBL     -0.630000       15.9994           0
     20719 MEMB     178      SAPC     C32      CTL2    -0.220000       12.0110           0
     20720 MEMB     178      SAPC     H2X      HAL2     0.900000E-01   1.00800           0
     20721 MEMB     178      SAPC     H2Y      HAL2     0.900000E-01   1.00800           0
     20722 MEMB     178      SAPC     C23      CTL2    -0.180000       12.0110           0
     20723 MEMB     178      SAPC     H3R      HAL2     0.900000E-01   1.00800           0
     20724 MEMB     178      SAPC     H3S      HAL2     0.900000E-01   1.00800           0
     20725 MEMB     178      SAPC     C24      CTL2    -0.180000       12.0110           0
     20726 MEMB     178      SAPC     H4R      HAL2     0.900000E-01   1.00800           0
     20727 MEMB     178      SAPC     H4S      HAL2     0.900000E-01   1.00800           0
     20728 MEMB     178      SAPC     C25      CEL1    -0.150000       12.0110           0
     20729 MEMB     178      SAPC     H5R      HEL1     0.150000       1.00800           0
     20730 MEMB     178      SAPC     C26      CEL1    -0.150000       12.0110           0
     20731 MEMB     178      SAPC     H6R      HEL1     0.150000       1.00800           0
     20732 MEMB     178      SAPC     C27      CTL2    -0.180000       12.0110           0
     20733 MEMB     178      SAPC     H7R      HAL2     0.900000E-01   1.00800           0
     20734 MEMB     178      SAPC     H7S      HAL2     0.900000E-01   1.00800           0
     20735 MEMB     178      SAPC     C28      CEL1    -0.150000       12.0110           0
     20736 MEMB     178      SAPC     H8R      HEL1     0.150000       1.00800           0
     20737 MEMB     178      SAPC     C29      CEL1    -0.150000       12.0110           0
     20738 MEMB     178      SAPC     H9R      HEL1     0.150000       1.00800           0
     20739 MEMB     178      SAPC     C210     CTL2    -0.180000       12.0110           0
     20740 MEMB     178      SAPC     H10R     HAL2     0.900000E-01   1.00800           0
     20741 MEMB     178      SAPC     H10S     HAL2     0.900000E-01   1.00800           0
     20742 MEMB     178      SAPC     C211     CEL1    -0.150000       12.0110           0
     20743 MEMB     178      SAPC     H11R     HEL1     0.150000       1.00800           0
     20744 MEMB     178      SAPC     C212     CEL1    -0.150000       12.0110           0
     20745 MEMB     178      SAPC     H12R     HEL1     0.150000       1.00800           0
     20746 MEMB     178      SAPC     C213     CTL2    -0.180000       12.0110           0
     20747 MEMB     178      SAPC     H13R     HAL2     0.900000E-01   1.00800           0
     20748 MEMB     178      SAPC     H13S     HAL2     0.900000E-01   1.00800           0
     20749 MEMB     178      SAPC     C214     CEL1    -0.150000       12.0110           0
     20750 MEMB     178      SAPC     H14R     HEL1     0.150000       1.00800           0
     20751 MEMB     178      SAPC     C215     CEL1    -0.150000       12.0110           0
     20752 MEMB     178      SAPC     H15R     HEL1     0.150000       1.00800           0
     20753 MEMB     178      SAPC     C216     CTL2    -0.180000       12.0110           0
     20754 MEMB     178      SAPC     H16R     HAL2     0.900000E-01   1.00800           0
     20755 MEMB     178      SAPC     H16S     HAL2     0.900000E-01   1.00800           0
     20756 MEMB     178      SAPC     C217     CTL2    -0.180000       12.0110           0
     20757 MEMB     178      SAPC     H17R     HAL2     0.900000E-01   1.00800           0
     20758 MEMB     178      SAPC     H17S     HAL2     0.900000E-01   1.00800           0
     20759 MEMB     178      SAPC     C218     CTL2    -0.270000       12.0110           0
     20760 MEMB     178      SAPC     H18R     HAL2     0.900000E-01   1.00800           0
     20761 MEMB     178      SAPC     H18S     HAL2     0.900000E-01   1.00800           0
     20762 MEMB     178      SAPC     C219     CTL2    -0.180000       12.0110           0
     20763 MEMB     178      SAPC     H19R     HAL2     0.900000E-01   1.00800           0
     20764 MEMB     178      SAPC     H19S     HAL2     0.900000E-01   1.00800           0
     20765 MEMB     178      SAPC     C220     CTL3    -0.180000       12.0110           0
     20766 MEMB     178      SAPC     H20R     HAL3     0.900000E-01   1.00800           0
     20767 MEMB     178      SAPC     H20S     HAL3     0.900000E-01   1.00800           0
     20768 MEMB     178      SAPC     H20T     HAL3     0.900000E-01   1.00800           0
     20769 MEMB     178      SAPC     C33      CTL2    -0.180000       12.0110           0
     20770 MEMB     178      SAPC     H3X      HAL2     0.900000E-01   1.00800           0
     20771 MEMB     178      SAPC     H3Y      HAL2     0.900000E-01   1.00800           0
     20772 MEMB     178      SAPC     C34      CTL2    -0.180000       12.0110           0
     20773 MEMB     178      SAPC     H4X      HAL2     0.900000E-01   1.00800           0
     20774 MEMB     178      SAPC     H4Y      HAL2     0.900000E-01   1.00800           0
     20775 MEMB     178      SAPC     C35      CTL2    -0.180000       12.0110           0
     20776 MEMB     178      SAPC     H5X      HAL2     0.900000E-01   1.00800           0
     20777 MEMB     178      SAPC     H5Y      HAL2     0.900000E-01   1.00800           0
     20778 MEMB     178      SAPC     C36      CTL2    -0.180000       12.0110           0
     20779 MEMB     178      SAPC     H6X      HAL2     0.900000E-01   1.00800           0
     20780 MEMB     178      SAPC     H6Y      HAL2     0.900000E-01   1.00800           0
     20781 MEMB     178      SAPC     C37      CTL2    -0.180000       12.0110           0
     20782 MEMB     178      SAPC     H7X      HAL2     0.900000E-01   1.00800           0
     20783 MEMB     178      SAPC     H7Y      HAL2     0.900000E-01   1.00800           0
     20784 MEMB     178      SAPC     C38      CTL2    -0.180000       12.0110           0
     20785 MEMB     178      SAPC     H8X      HAL2     0.900000E-01   1.00800           0
     20786 MEMB     178      SAPC     H8Y      HAL2     0.900000E-01   1.00800           0
     20787 MEMB     178      SAPC     C39      CTL2    -0.180000       12.0110           0
     20788 MEMB     178      SAPC     H9X      HAL2     0.900000E-01   1.00800           0
     20789 MEMB     178      SAPC     H9Y      HAL2     0.900000E-01   1.00800           0
     20790 MEMB     178      SAPC     C310     CTL2    -0.180000       12.0110           0
     20791 MEMB     178      SAPC     H10X     HAL2     0.900000E-01   1.00800           0
     20792 MEMB     178      SAPC     H10Y     HAL2     0.900000E-01   1.00800           0
     20793 MEMB     178      SAPC     C311     CTL2    -0.180000       12.0110           0
     20794 MEMB     178      SAPC     H11X     HAL2     0.900000E-01   1.00800           0
     20795 MEMB     178      SAPC     H11Y     HAL2     0.900000E-01   1.00800           0
     20796 MEMB     178      SAPC     C312     CTL2    -0.180000       12.0110           0
     20797 MEMB     178      SAPC     H12X     HAL2     0.900000E-01   1.00800           0
     20798 MEMB     178      SAPC     H12Y     HAL2     0.900000E-01   1.00800           0
     20799 MEMB     178      SAPC     C313     CTL2    -0.180000       12.0110           0
     20800 MEMB     178      SAPC     H13X     HAL2     0.900000E-01   1.00800           0
     20801 MEMB     178      SAPC     H13Y     HAL2     0.900000E-01   1.00800           0
     20802 MEMB     178      SAPC     C314     CTL2    -0.180000       12.0110           0
     20803 MEMB     178      SAPC     H14X     HAL2     0.900000E-01   1.00800           0
     20804 MEMB     178      SAPC     H14Y     HAL2     0.900000E-01   1.00800           0
     20805 MEMB     178      SAPC     C315     CTL2    -0.180000       12.0110           0
     20806 MEMB     178      SAPC     H15X     HAL2     0.900000E-01   1.00800           0
     20807 MEMB     178      SAPC     H15Y     HAL2     0.900000E-01   1.00800           0
     20808 MEMB     178      SAPC     C316     CTL2    -0.180000       12.0110           0
     20809 MEMB     178      SAPC     H16X     HAL2     0.900000E-01   1.00800           0
     20810 MEMB     178      SAPC     H16Y     HAL2     0.900000E-01   1.00800           0
     20811 MEMB     178      SAPC     C317     CTL2    -0.180000       12.0110           0
     20812 MEMB     178      SAPC     H17X     HAL2     0.900000E-01   1.00800           0
     20813 MEMB     178      SAPC     H17Y     HAL2     0.900000E-01   1.00800           0
     20814 MEMB     178      SAPC     C318     CTL3    -0.270000       12.0110           0
     20815 MEMB     178      SAPC     H18X     HAL3     0.900000E-01   1.00800           0
     20816 MEMB     178      SAPC     H18Y     HAL3     0.900000E-01   1.00800           0
     20817 MEMB     178      SAPC     H18Z     HAL3     0.900000E-01   1.00800           0
     20818 MEMB     179      OSM      N        NTL     -0.600000       14.0070           0
     20819 MEMB     179      OSM      C15      CTL5    -0.350000       12.0110           0
     20820 MEMB     179      OSM      H15A     HL       0.250000       1.00800           0
     20821 MEMB     179      OSM      H15B     HL       0.250000       1.00800           0
     20822 MEMB     179      OSM      H15C     HL       0.250000       1.00800           0
     20823 MEMB     179      OSM      C14      CTL5    -0.350000       12.0110           0
     20824 MEMB     179      OSM      H14A     HL       0.250000       1.00800           0
     20825 MEMB     179      OSM      H14B     HL       0.250000       1.00800           0
     20826 MEMB     179      OSM      H14C     HL       0.250000       1.00800           0
     20827 MEMB     179      OSM      C13      CTL5    -0.350000       12.0110           0
     20828 MEMB     179      OSM      H13A     HL       0.250000       1.00800           0
     20829 MEMB     179      OSM      H13B     HL       0.250000       1.00800           0
     20830 MEMB     179      OSM      H13C     HL       0.250000       1.00800           0
     20831 MEMB     179      OSM      C12      CTL2    -0.100000       12.0110           0
     20832 MEMB     179      OSM      H12A     HL       0.250000       1.00800           0
     20833 MEMB     179      OSM      H12B     HL       0.250000       1.00800           0
     20834 MEMB     179      OSM      C11      CTL2    -0.800000E-01   12.0110           0
     20835 MEMB     179      OSM      H11A     HAL2     0.900000E-01   1.00800           0
     20836 MEMB     179      OSM      H11B     HAL2     0.900000E-01   1.00800           0
     20837 MEMB     179      OSM      P        PL        1.50000       30.9740           0
     20838 MEMB     179      OSM      O13      O2L     -0.780000       15.9994           0
     20839 MEMB     179      OSM      O14      O2L     -0.780000       15.9994           0
     20840 MEMB     179      OSM      O11      OSLP    -0.570000       15.9994           0
     20841 MEMB     179      OSM      O12      OSLP    -0.570000       15.9994           0
     20842 MEMB     179      OSM      C1S      CTL2    -0.800000E-01   12.0110           0
     20843 MEMB     179      OSM      H1S      HAL2     0.900000E-01   1.00800           0
     20844 MEMB     179      OSM      H1T      HAL2     0.900000E-01   1.00800           0
     20845 MEMB     179      OSM      NF       NHL     -0.700000       14.0070           0
     20846 MEMB     179      OSM      HNF      H        0.350000       1.00800           0
     20847 MEMB     179      OSM      C2S      CTL1     0.300000       12.0110           0
     20848 MEMB     179      OSM      H2S      HAL1     0.500000E-01   1.00800           0
     20849 MEMB     179      OSM      C3S      CTO1     0.500000       12.0110           0
     20850 MEMB     179      OSM      H3S      HAL1    -0.110000       1.00800           0
     20851 MEMB     179      OSM      O3       OHL     -0.690000       15.9994           0
     20852 MEMB     179      OSM      HO3      HOL      0.300000       1.00800           0
     20853 MEMB     179      OSM      C4S      CEL3    -0.150000       12.0110           0
     20854 MEMB     179      OSM      H4S      HEL1     0.150000       1.00800           0
     20855 MEMB     179      OSM      C5S      CEL3    -0.150000       12.0110           0
     20856 MEMB     179      OSM      H5S      HEL1     0.150000       1.00800           0
     20857 MEMB     179      OSM      C6S      CTL2    -0.180000       12.0110           0
     20858 MEMB     179      OSM      H6S      HAL2     0.900000E-01   1.00800           0
     20859 MEMB     179      OSM      H6T      HAL2     0.900000E-01   1.00800           0
     20860 MEMB     179      OSM      C7S      CTL2    -0.180000       12.0110           0
     20861 MEMB     179      OSM      H7S      HAL2     0.900000E-01   1.00800           0
     20862 MEMB     179      OSM      H7T      HAL2     0.900000E-01   1.00800           0
     20863 MEMB     179      OSM      C8S      CTL2    -0.180000       12.0110           0
     20864 MEMB     179      OSM      H8S      HAL2     0.900000E-01   1.00800           0
     20865 MEMB     179      OSM      H8T      HAL2     0.900000E-01   1.00800           0
     20866 MEMB     179      OSM      C9S      CTL2    -0.180000       12.0110           0
     20867 MEMB     179      OSM      H9S      HAL2     0.900000E-01   1.00800           0
     20868 MEMB     179      OSM      H9T      HAL2     0.900000E-01   1.00800           0
     20869 MEMB     179      OSM      C10S     CTL2    -0.180000       12.0110           0
     20870 MEMB     179      OSM      H10S     HAL2     0.900000E-01   1.00800           0
     20871 MEMB     179      OSM      H10T     HAL2     0.900000E-01   1.00800           0
     20872 MEMB     179      OSM      C11S     CTL2    -0.180000       12.0110           0
     20873 MEMB     179      OSM      H11S     HAL2     0.900000E-01   1.00800           0
     20874 MEMB     179      OSM      H11T     HAL2     0.900000E-01   1.00800           0
     20875 MEMB     179      OSM      C12S     CTL2    -0.180000       12.0110           0
     20876 MEMB     179      OSM      H12S     HAL2     0.900000E-01   1.00800           0
     20877 MEMB     179      OSM      H12T     HAL2     0.900000E-01   1.00800           0
     20878 MEMB     179      OSM      C13S     CTL2    -0.180000       12.0110           0
     20879 MEMB     179      OSM      H13S     HAL2     0.900000E-01   1.00800           0
     20880 MEMB     179      OSM      H13T     HAL2     0.900000E-01   1.00800           0
     20881 MEMB     179      OSM      C14S     CTL2    -0.180000       12.0110           0
     20882 MEMB     179      OSM      H14S     HAL2     0.900000E-01   1.00800           0
     20883 MEMB     179      OSM      H14T     HAL2     0.900000E-01   1.00800           0
     20884 MEMB     179      OSM      C15S     CTL2    -0.180000       12.0110           0
     20885 MEMB     179      OSM      H15S     HAL2     0.900000E-01   1.00800           0
     20886 MEMB     179      OSM      H15T     HAL2     0.900000E-01   1.00800           0
     20887 MEMB     179      OSM      C16S     CTL2    -0.180000       12.0110           0
     20888 MEMB     179      OSM      H16S     HAL2     0.900000E-01   1.00800           0
     20889 MEMB     179      OSM      H16T     HAL2     0.900000E-01   1.00800           0
     20890 MEMB     179      OSM      C17S     CTL2    -0.180000       12.0110           0
     20891 MEMB     179      OSM      H17S     HAL2     0.900000E-01   1.00800           0
     20892 MEMB     179      OSM      H17T     HAL2     0.900000E-01   1.00800           0
     20893 MEMB     179      OSM      C18S     CTL3    -0.270000       12.0110           0
     20894 MEMB     179      OSM      H18S     HAL3     0.900000E-01   1.00800           0
     20895 MEMB     179      OSM      H18T     HAL3     0.900000E-01   1.00800           0
     20896 MEMB     179      OSM      H18U     HAL3     0.900000E-01   1.00800           0
     20897 MEMB     179      OSM      C1F      C        0.550000       12.0110           0
     20898 MEMB     179      OSM      OF       O       -0.600000       15.9994           0
     20899 MEMB     179      OSM      C2F      CTL2    -0.700000E-01   12.0110           0
     20900 MEMB     179      OSM      H2F      HAL2     0.600000E-01   1.00800           0
     20901 MEMB     179      OSM      H2G      HAL2     0.600000E-01   1.00800           0
     20902 MEMB     179      OSM      C3F      CTL2    -0.180000       12.0110           0
     20903 MEMB     179      OSM      H3F      HAL2     0.900000E-01   1.00800           0
     20904 MEMB     179      OSM      H3G      HAL2     0.900000E-01   1.00800           0
     20905 MEMB     179      OSM      C4F      CTL2    -0.180000       12.0110           0
     20906 MEMB     179      OSM      H4F      HAL2     0.900000E-01   1.00800           0
     20907 MEMB     179      OSM      H4G      HAL2     0.900000E-01   1.00800           0
     20908 MEMB     179      OSM      C5F      CTL2    -0.180000       12.0110           0
     20909 MEMB     179      OSM      H5F      HAL2     0.900000E-01   1.00800           0
     20910 MEMB     179      OSM      H5G      HAL2     0.900000E-01   1.00800           0
     20911 MEMB     179      OSM      C6F      CTL2    -0.180000       12.0110           0
     20912 MEMB     179      OSM      H6F      HAL2     0.900000E-01   1.00800           0
     20913 MEMB     179      OSM      H6G      HAL2     0.900000E-01   1.00800           0
     20914 MEMB     179      OSM      C7F      CTL2    -0.180000       12.0110           0
     20915 MEMB     179      OSM      H7F      HAL2     0.900000E-01   1.00800           0
     20916 MEMB     179      OSM      H7G      HAL2     0.900000E-01   1.00800           0
     20917 MEMB     179      OSM      C8F      CTL2    -0.180000       12.0110           0
     20918 MEMB     179      OSM      H8F      HAL2     0.900000E-01   1.00800           0
     20919 MEMB     179      OSM      H8G      HAL2     0.900000E-01   1.00800           0
     20920 MEMB     179      OSM      C9F      CEL1    -0.150000       12.0110           0
     20921 MEMB     179      OSM      H9F      HEL1     0.150000       1.00800           0
     20922 MEMB     179      OSM      C10F     CEL1    -0.150000       12.0110           0
     20923 MEMB     179      OSM      H10F     HEL1     0.150000       1.00800           0
     20924 MEMB     179      OSM      C11F     CTL2    -0.180000       12.0110           0
     20925 MEMB     179      OSM      H11F     HAL2     0.900000E-01   1.00800           0
     20926 MEMB     179      OSM      H11G     HAL2     0.900000E-01   1.00800           0
     20927 MEMB     179      OSM      C12F     CTL2    -0.180000       12.0110           0
     20928 MEMB     179      OSM      H12F     HAL2     0.900000E-01   1.00800           0
     20929 MEMB     179      OSM      H12G     HAL2     0.900000E-01   1.00800           0
     20930 MEMB     179      OSM      C13F     CTL2    -0.180000       12.0110           0
     20931 MEMB     179      OSM      H13F     HAL2     0.900000E-01   1.00800           0
     20932 MEMB     179      OSM      H13G     HAL2     0.900000E-01   1.00800           0
     20933 MEMB     179      OSM      C14F     CTL2    -0.180000       12.0110           0
     20934 MEMB     179      OSM      H14F     HAL2     0.900000E-01   1.00800           0
     20935 MEMB     179      OSM      H14G     HAL2     0.900000E-01   1.00800           0
     20936 MEMB     179      OSM      C15F     CTL2    -0.180000       12.0110           0
     20937 MEMB     179      OSM      H15F     HAL2     0.900000E-01   1.00800           0
     20938 MEMB     179      OSM      H15G     HAL2     0.900000E-01   1.00800           0
     20939 MEMB     179      OSM      C16F     CTL2    -0.180000       12.0110           0
     20940 MEMB     179      OSM      H16F     HAL2     0.900000E-01   1.00800           0
     20941 MEMB     179      OSM      H16G     HAL2     0.900000E-01   1.00800           0
     20942 MEMB     179      OSM      C17F     CTL2    -0.180000       12.0110           0
     20943 MEMB     179      OSM      H17F     HAL2     0.900000E-01   1.00800           0
     20944 MEMB     179      OSM      H17G     HAL2     0.900000E-01   1.00800           0
     20945 MEMB     179      OSM      C18F     CTL3    -0.270000       12.0110           0
     20946 MEMB     179      OSM      H18F     HAL3     0.900000E-01   1.00800           0
     20947 MEMB     179      OSM      H18G     HAL3     0.900000E-01   1.00800           0
     20948 MEMB     179      OSM      H18H     HAL3     0.900000E-01   1.00800           0
     20949 MEMB     180      SAPS     N        NH3L    -0.300000       14.0070           0
     20950 MEMB     180      SAPS     HN1      HCL      0.330000       1.00800           0
     20951 MEMB     180      SAPS     HN2      HCL      0.330000       1.00800           0
     20952 MEMB     180      SAPS     HN3      HCL      0.330000       1.00800           0
     20953 MEMB     180      SAPS     C12      CTL1     0.210000       12.0110           0
     20954 MEMB     180      SAPS     H12A     HBL      0.100000       1.00800           0
     20955 MEMB     180      SAPS     C13      CCL      0.340000       12.0110           0
     20956 MEMB     180      SAPS     O13A     OCL     -0.670000       15.9994           0
     20957 MEMB     180      SAPS     O13B     OCL     -0.670000       15.9994           0
     20958 MEMB     180      SAPS     C11      CTL2    -0.800000E-01   12.0110           0
     20959 MEMB     180      SAPS     H11A     HAL2     0.900000E-01   1.00800           0
     20960 MEMB     180      SAPS     H11B     HAL2     0.900000E-01   1.00800           0
     20961 MEMB     180      SAPS     P        PL        1.50000       30.9740           0
     20962 MEMB     180      SAPS     O13      O2L     -0.780000       15.9994           0
     20963 MEMB     180      SAPS     O14      O2L     -0.780000       15.9994           0
     20964 MEMB     180      SAPS     O12      OSLP    -0.570000       15.9994           0
     20965 MEMB     180      SAPS     O11      OSLP    -0.570000       15.9994           0
     20966 MEMB     180      SAPS     C1       CTL2    -0.800000E-01   12.0110           0
     20967 MEMB     180      SAPS     HA       HAL2     0.900000E-01   1.00800           0
     20968 MEMB     180      SAPS     HB       HAL2     0.900000E-01   1.00800           0
     20969 MEMB     180      SAPS     C2       CTL1     0.170000       12.0110           0
     20970 MEMB     180      SAPS     HS       HAL1     0.900000E-01   1.00800           0
     20971 MEMB     180      SAPS     O21      OSL     -0.490000       15.9994           0
     20972 MEMB     180      SAPS     C21      CL       0.900000       12.0110           0
     20973 MEMB     180      SAPS     O22      OBL     -0.630000       15.9994           0
     20974 MEMB     180      SAPS     C22      CTL2    -0.220000       12.0110           0
     20975 MEMB     180      SAPS     H2R      HAL2     0.900000E-01   1.00800           0
     20976 MEMB     180      SAPS     H2S      HAL2     0.900000E-01   1.00800           0
     20977 MEMB     180      SAPS     C3       CTL2     0.800000E-01   12.0110           0
     20978 MEMB     180      SAPS     HX       HAL2     0.900000E-01   1.00800           0
     20979 MEMB     180      SAPS     HY       HAL2     0.900000E-01   1.00800           0
     20980 MEMB     180      SAPS     O31      OSL     -0.490000       15.9994           0
     20981 MEMB     180      SAPS     C31      CL       0.900000       12.0110           0
     20982 MEMB     180      SAPS     O32      OBL     -0.630000       15.9994           0
     20983 MEMB     180      SAPS     C32      CTL2    -0.220000       12.0110           0
     20984 MEMB     180      SAPS     H2X      HAL2     0.900000E-01   1.00800           0
     20985 MEMB     180      SAPS     H2Y      HAL2     0.900000E-01   1.00800           0
     20986 MEMB     180      SAPS     C23      CTL2    -0.180000       12.0110           0
     20987 MEMB     180      SAPS     H3R      HAL2     0.900000E-01   1.00800           0
     20988 MEMB     180      SAPS     H3S      HAL2     0.900000E-01   1.00800           0
     20989 MEMB     180      SAPS     C24      CTL2    -0.180000       12.0110           0
     20990 MEMB     180      SAPS     H4R      HAL2     0.900000E-01   1.00800           0
     20991 MEMB     180      SAPS     H4S      HAL2     0.900000E-01   1.00800           0
     20992 MEMB     180      SAPS     C25      CEL1    -0.150000       12.0110           0
     20993 MEMB     180      SAPS     H5R      HEL1     0.150000       1.00800           0
     20994 MEMB     180      SAPS     C26      CEL1    -0.150000       12.0110           0
     20995 MEMB     180      SAPS     H6R      HEL1     0.150000       1.00800           0
     20996 MEMB     180      SAPS     C27      CTL2    -0.180000       12.0110           0
     20997 MEMB     180      SAPS     H7R      HAL2     0.900000E-01   1.00800           0
     20998 MEMB     180      SAPS     H7S      HAL2     0.900000E-01   1.00800           0
     20999 MEMB     180      SAPS     C28      CEL1    -0.150000       12.0110           0
     21000 MEMB     180      SAPS     H8R      HEL1     0.150000       1.00800           0
     21001 MEMB     180      SAPS     C29      CEL1    -0.150000       12.0110           0
     21002 MEMB     180      SAPS     H9R      HEL1     0.150000       1.00800           0
     21003 MEMB     180      SAPS     C210     CTL2    -0.180000       12.0110           0
     21004 MEMB     180      SAPS     H10R     HAL2     0.900000E-01   1.00800           0
     21005 MEMB     180      SAPS     H10S     HAL2     0.900000E-01   1.00800           0
     21006 MEMB     180      SAPS     C211     CEL1    -0.150000       12.0110           0
     21007 MEMB     180      SAPS     H11R     HEL1     0.150000       1.00800           0
     21008 MEMB     180      SAPS     C212     CEL1    -0.150000       12.0110           0
     21009 MEMB     180      SAPS     H12R     HEL1     0.150000       1.00800           0
     21010 MEMB     180      SAPS     C213     CTL2    -0.180000       12.0110           0
     21011 MEMB     180      SAPS     H13R     HAL2     0.900000E-01   1.00800           0
     21012 MEMB     180      SAPS     H13S     HAL2     0.900000E-01   1.00800           0
     21013 MEMB     180      SAPS     C214     CEL1    -0.150000       12.0110           0
     21014 MEMB     180      SAPS     H14R     HEL1     0.150000       1.00800           0
     21015 MEMB     180      SAPS     C215     CEL1    -0.150000       12.0110           0
     21016 MEMB     180      SAPS     H15R     HEL1     0.150000       1.00800           0
     21017 MEMB     180      SAPS     C216     CTL2    -0.180000       12.0110           0
     21018 MEMB     180      SAPS     H16R     HAL2     0.900000E-01   1.00800           0
     21019 MEMB     180      SAPS     H16S     HAL2     0.900000E-01   1.00800           0
     21020 MEMB     180      SAPS     C217     CTL2    -0.180000       12.0110           0
     21021 MEMB     180      SAPS     H17R     HAL2     0.900000E-01   1.00800           0
     21022 MEMB     180      SAPS     H17S     HAL2     0.900000E-01   1.00800           0
     21023 MEMB     180      SAPS     C218     CTL2    -0.180000       12.0110           0
     21024 MEMB     180      SAPS     H18R     HAL2     0.900000E-01   1.00800           0
     21025 MEMB     180      SAPS     H18S     HAL2     0.900000E-01   1.00800           0
     21026 MEMB     180      SAPS     C219     CTL2    -0.180000       12.0110           0
     21027 MEMB     180      SAPS     H19R     HAL2     0.900000E-01   1.00800           0
     21028 MEMB     180      SAPS     H19S     HAL2     0.900000E-01   1.00800           0
     21029 MEMB     180      SAPS     C220     CTL3    -0.270000       12.0110           0
     21030 MEMB     180      SAPS     H20R     HAL3     0.900000E-01   1.00800           0
     21031 MEMB     180      SAPS     H20S     HAL3     0.900000E-01   1.00800           0
     21032 MEMB     180      SAPS     H20T     HAL3     0.900000E-01   1.00800           0
     21033 MEMB     180      SAPS     C33      CTL2    -0.180000       12.0110           0
     21034 MEMB     180      SAPS     H3X      HAL2     0.900000E-01   1.00800           0
     21035 MEMB     180      SAPS     H3Y      HAL2     0.900000E-01   1.00800           0
     21036 MEMB     180      SAPS     C34      CTL2    -0.180000       12.0110           0
     21037 MEMB     180      SAPS     H4X      HAL2     0.900000E-01   1.00800           0
     21038 MEMB     180      SAPS     H4Y      HAL2     0.900000E-01   1.00800           0
     21039 MEMB     180      SAPS     C35      CTL2    -0.180000       12.0110           0
     21040 MEMB     180      SAPS     H5X      HAL2     0.900000E-01   1.00800           0
     21041 MEMB     180      SAPS     H5Y      HAL2     0.900000E-01   1.00800           0
     21042 MEMB     180      SAPS     C36      CTL2    -0.180000       12.0110           0
     21043 MEMB     180      SAPS     H6X      HAL2     0.900000E-01   1.00800           0
     21044 MEMB     180      SAPS     H6Y      HAL2     0.900000E-01   1.00800           0
     21045 MEMB     180      SAPS     C37      CTL2    -0.180000       12.0110           0
     21046 MEMB     180      SAPS     H7X      HAL2     0.900000E-01   1.00800           0
     21047 MEMB     180      SAPS     H7Y      HAL2     0.900000E-01   1.00800           0
     21048 MEMB     180      SAPS     C38      CTL2    -0.180000       12.0110           0
     21049 MEMB     180      SAPS     H8X      HAL2     0.900000E-01   1.00800           0
     21050 MEMB     180      SAPS     H8Y      HAL2     0.900000E-01   1.00800           0
     21051 MEMB     180      SAPS     C39      CTL2    -0.180000       12.0110           0
     21052 MEMB     180      SAPS     H9X      HAL2     0.900000E-01   1.00800           0
     21053 MEMB     180      SAPS     H9Y      HAL2     0.900000E-01   1.00800           0
     21054 MEMB     180      SAPS     C310     CTL2    -0.180000       12.0110           0
     21055 MEMB     180      SAPS     H10X     HAL2     0.900000E-01   1.00800           0
     21056 MEMB     180      SAPS     H10Y     HAL2     0.900000E-01   1.00800           0
     21057 MEMB     180      SAPS     C311     CTL2    -0.180000       12.0110           0
     21058 MEMB     180      SAPS     H11X     HAL2     0.900000E-01   1.00800           0
     21059 MEMB     180      SAPS     H11Y     HAL2     0.900000E-01   1.00800           0
     21060 MEMB     180      SAPS     C312     CTL2    -0.180000       12.0110           0
     21061 MEMB     180      SAPS     H12X     HAL2     0.900000E-01   1.00800           0
     21062 MEMB     180      SAPS     H12Y     HAL2     0.900000E-01   1.00800           0
     21063 MEMB     180      SAPS     C313     CTL2    -0.180000       12.0110           0
     21064 MEMB     180      SAPS     H13X     HAL2     0.900000E-01   1.00800           0
     21065 MEMB     180      SAPS     H13Y     HAL2     0.900000E-01   1.00800           0
     21066 MEMB     180      SAPS     C314     CTL2    -0.180000       12.0110           0
     21067 MEMB     180      SAPS     H14X     HAL2     0.900000E-01   1.00800           0
     21068 MEMB     180      SAPS     H14Y     HAL2     0.900000E-01   1.00800           0
     21069 MEMB     180      SAPS     C315     CTL2    -0.180000       12.0110           0
     21070 MEMB     180      SAPS     H15X     HAL2     0.900000E-01   1.00800           0
     21071 MEMB     180      SAPS     H15Y     HAL2     0.900000E-01   1.00800           0
     21072 MEMB     180      SAPS     C316     CTL2    -0.180000       12.0110           0
     21073 MEMB     180      SAPS     H16X     HAL2     0.900000E-01   1.00800           0
     21074 MEMB     180      SAPS     H16Y     HAL2     0.900000E-01   1.00800           0
     21075 MEMB     180      SAPS     C317     CTL2    -0.180000       12.0110           0
     21076 MEMB     180      SAPS     H17X     HAL2     0.900000E-01   1.00800           0
     21077 MEMB     180      SAPS     H17Y     HAL2     0.900000E-01   1.00800           0
     21078 MEMB     180      SAPS     C318     CTL3    -0.270000       12.0110           0
     21079 MEMB     180      SAPS     H18X     HAL3     0.900000E-01   1.00800           0
     21080 MEMB     180      SAPS     H18Y     HAL3     0.900000E-01   1.00800           0
     21081 MEMB     180      SAPS     H18Z     HAL3     0.900000E-01   1.00800           0
     21082 MEMB     181      CHL1     C3       CRL1     0.140000       12.0110           0
     21083 MEMB     181      CHL1     H3       HGA1     0.900000E-01   1.00800           0
     21084 MEMB     181      CHL1     O3       OHL     -0.660000       15.9994           0
     21085 MEMB     181      CHL1     H3'      HOL      0.430000       1.00800           0
     21086 MEMB     181      CHL1     C4       CRL2    -0.180000       12.0110           0
     21087 MEMB     181      CHL1     H4A      HGA2     0.900000E-01   1.00800           0
     21088 MEMB     181      CHL1     H4B      HGA2     0.900000E-01   1.00800           0
     21089 MEMB     181      CHL1     C5       CEL1      0.00000       12.0110           0
     21090 MEMB     181      CHL1     C6       CEL1    -0.150000       12.0110           0
     21091 MEMB     181      CHL1     H6       HEL1     0.150000       1.00800           0
     21092 MEMB     181      CHL1     C7       CRL2    -0.180000       12.0110           0
     21093 MEMB     181      CHL1     H7A      HGA2     0.900000E-01   1.00800           0
     21094 MEMB     181      CHL1     H7B      HGA2     0.900000E-01   1.00800           0
     21095 MEMB     181      CHL1     C8       CRL1    -0.900000E-01   12.0110           0
     21096 MEMB     181      CHL1     H8       HGA1     0.900000E-01   1.00800           0
     21097 MEMB     181      CHL1     C14      CRL1    -0.900000E-01   12.0110           0
     21098 MEMB     181      CHL1     H14      HGA1     0.900000E-01   1.00800           0
     21099 MEMB     181      CHL1     C15      CRL2    -0.180000       12.0110           0
     21100 MEMB     181      CHL1     H15A     HGA2     0.900000E-01   1.00800           0
     21101 MEMB     181      CHL1     H15B     HGA2     0.900000E-01   1.00800           0
     21102 MEMB     181      CHL1     C16      CRL2    -0.180000       12.0110           0
     21103 MEMB     181      CHL1     H16A     HGA2     0.900000E-01   1.00800           0
     21104 MEMB     181      CHL1     H16B     HGA2     0.900000E-01   1.00800           0
     21105 MEMB     181      CHL1     C17      CRL1    -0.900000E-01   12.0110           0
     21106 MEMB     181      CHL1     H17      HGA1     0.900000E-01   1.00800           0
     21107 MEMB     181      CHL1     C13      CRL1      0.00000       12.0110           0
     21108 MEMB     181      CHL1     C18      CTL3    -0.270000       12.0110           0
     21109 MEMB     181      CHL1     H18A     HAL3     0.900000E-01   1.00800           0
     21110 MEMB     181      CHL1     H18B     HAL3     0.900000E-01   1.00800           0
     21111 MEMB     181      CHL1     H18C     HAL3     0.900000E-01   1.00800           0
     21112 MEMB     181      CHL1     C12      CRL2    -0.180000       12.0110           0
     21113 MEMB     181      CHL1     H12A     HGA2     0.900000E-01   1.00800           0
     21114 MEMB     181      CHL1     H12B     HGA2     0.900000E-01   1.00800           0
     21115 MEMB     181      CHL1     C11      CRL2    -0.180000       12.0110           0
     21116 MEMB     181      CHL1     H11A     HGA2     0.900000E-01   1.00800           0
     21117 MEMB     181      CHL1     H11B     HGA2     0.900000E-01   1.00800           0
     21118 MEMB     181      CHL1     C9       CRL1    -0.900000E-01   12.0110           0
     21119 MEMB     181      CHL1     H9       HGA1     0.900000E-01   1.00800           0
     21120 MEMB     181      CHL1     C10      CRL1      0.00000       12.0110           0
     21121 MEMB     181      CHL1     C19      CTL3    -0.270000       12.0110           0
     21122 MEMB     181      CHL1     H19A     HAL3     0.900000E-01   1.00800           0
     21123 MEMB     181      CHL1     H19B     HAL3     0.900000E-01   1.00800           0
     21124 MEMB     181      CHL1     H19C     HAL3     0.900000E-01   1.00800           0
     21125 MEMB     181      CHL1     C1       CRL2    -0.180000       12.0110           0
     21126 MEMB     181      CHL1     H1A      HGA2     0.900000E-01   1.00800           0
     21127 MEMB     181      CHL1     H1B      HGA2     0.900000E-01   1.00800           0
     21128 MEMB     181      CHL1     C2       CRL2    -0.180000       12.0110           0
     21129 MEMB     181      CHL1     H2A      HGA2     0.900000E-01   1.00800           0
     21130 MEMB     181      CHL1     H2B      HGA2     0.900000E-01   1.00800           0
     21131 MEMB     181      CHL1     C20      CTL1    -0.900000E-01   12.0110           0
     21132 MEMB     181      CHL1     H20      HAL1     0.900000E-01   1.00800           0
     21133 MEMB     181      CHL1     C21      CTL3    -0.270000       12.0110           0
     21134 MEMB     181      CHL1     H21A     HAL3     0.900000E-01   1.00800           0
     21135 MEMB     181      CHL1     H21B     HAL3     0.900000E-01   1.00800           0
     21136 MEMB     181      CHL1     H21C     HAL3     0.900000E-01   1.00800           0
     21137 MEMB     181      CHL1     C22      CTL2    -0.180000       12.0110           0
     21138 MEMB     181      CHL1     H22A     HAL2     0.900000E-01   1.00800           0
     21139 MEMB     181      CHL1     H22B     HAL2     0.900000E-01   1.00800           0
     21140 MEMB     181      CHL1     C23      CTL2    -0.180000       12.0110           0
     21141 MEMB     181      CHL1     H23A     HAL2     0.900000E-01   1.00800           0
     21142 MEMB     181      CHL1     H23B     HAL2     0.900000E-01   1.00800           0
     21143 MEMB     181      CHL1     C24      CTL2    -0.180000       12.0110           0
     21144 MEMB     181      CHL1     H24A     HAL2     0.900000E-01   1.00800           0
     21145 MEMB     181      CHL1     H24B     HAL2     0.900000E-01   1.00800           0
     21146 MEMB     181      CHL1     C25      CTL1    -0.900000E-01   12.0110           0
     21147 MEMB     181      CHL1     H25      HAL1     0.900000E-01   1.00800           0
     21148 MEMB     181      CHL1     C26      CTL3    -0.270000       12.0110           0
     21149 MEMB     181      CHL1     H26A     HAL3     0.900000E-01   1.00800           0
     21150 MEMB     181      CHL1     H26B     HAL3     0.900000E-01   1.00800           0
     21151 MEMB     181      CHL1     H26C     HAL3     0.900000E-01   1.00800           0
     21152 MEMB     181      CHL1     C27      CTL3    -0.270000       12.0110           0
     21153 MEMB     181      CHL1     H27A     HAL3     0.900000E-01   1.00800           0
     21154 MEMB     181      CHL1     H27B     HAL3     0.900000E-01   1.00800           0
     21155 MEMB     181      CHL1     H27C     HAL3     0.900000E-01   1.00800           0
     21156 MEMB     182      CHL1     C3       CRL1     0.140000       12.0110           0
     21157 MEMB     182      CHL1     H3       HGA1     0.900000E-01   1.00800           0
     21158 MEMB     182      CHL1     O3       OHL     -0.660000       15.9994           0
     21159 MEMB     182      CHL1     H3'      HOL      0.430000       1.00800           0
     21160 MEMB     182      CHL1     C4       CRL2    -0.180000       12.0110           0
     21161 MEMB     182      CHL1     H4A      HGA2     0.900000E-01   1.00800           0
     21162 MEMB     182      CHL1     H4B      HGA2     0.900000E-01   1.00800           0
     21163 MEMB     182      CHL1     C5       CEL1      0.00000       12.0110           0
     21164 MEMB     182      CHL1     C6       CEL1    -0.150000       12.0110           0
     21165 MEMB     182      CHL1     H6       HEL1     0.150000       1.00800           0
     21166 MEMB     182      CHL1     C7       CRL2    -0.180000       12.0110           0
     21167 MEMB     182      CHL1     H7A      HGA2     0.900000E-01   1.00800           0
     21168 MEMB     182      CHL1     H7B      HGA2     0.900000E-01   1.00800           0
     21169 MEMB     182      CHL1     C8       CRL1    -0.900000E-01   12.0110           0
     21170 MEMB     182      CHL1     H8       HGA1     0.900000E-01   1.00800           0
     21171 MEMB     182      CHL1     C14      CRL1    -0.900000E-01   12.0110           0
     21172 MEMB     182      CHL1     H14      HGA1     0.900000E-01   1.00800           0
     21173 MEMB     182      CHL1     C15      CRL2    -0.180000       12.0110           0
     21174 MEMB     182      CHL1     H15A     HGA2     0.900000E-01   1.00800           0
     21175 MEMB     182      CHL1     H15B     HGA2     0.900000E-01   1.00800           0
     21176 MEMB     182      CHL1     C16      CRL2    -0.180000       12.0110           0
     21177 MEMB     182      CHL1     H16A     HGA2     0.900000E-01   1.00800           0
     21178 MEMB     182      CHL1     H16B     HGA2     0.900000E-01   1.00800           0
     21179 MEMB     182      CHL1     C17      CRL1    -0.900000E-01   12.0110           0
     21180 MEMB     182      CHL1     H17      HGA1     0.900000E-01   1.00800           0
     21181 MEMB     182      CHL1     C13      CRL1      0.00000       12.0110           0
     21182 MEMB     182      CHL1     C18      CTL3    -0.270000       12.0110           0
     21183 MEMB     182      CHL1     H18A     HAL3     0.900000E-01   1.00800           0
     21184 MEMB     182      CHL1     H18B     HAL3     0.900000E-01   1.00800           0
     21185 MEMB     182      CHL1     H18C     HAL3     0.900000E-01   1.00800           0
     21186 MEMB     182      CHL1     C12      CRL2    -0.180000       12.0110           0
     21187 MEMB     182      CHL1     H12A     HGA2     0.900000E-01   1.00800           0
     21188 MEMB     182      CHL1     H12B     HGA2     0.900000E-01   1.00800           0
     21189 MEMB     182      CHL1     C11      CRL2    -0.180000       12.0110           0
     21190 MEMB     182      CHL1     H11A     HGA2     0.900000E-01   1.00800           0
     21191 MEMB     182      CHL1     H11B     HGA2     0.900000E-01   1.00800           0
     21192 MEMB     182      CHL1     C9       CRL1    -0.900000E-01   12.0110           0
     21193 MEMB     182      CHL1     H9       HGA1     0.900000E-01   1.00800           0
     21194 MEMB     182      CHL1     C10      CRL1      0.00000       12.0110           0
     21195 MEMB     182      CHL1     C19      CTL3    -0.270000       12.0110           0
     21196 MEMB     182      CHL1     H19A     HAL3     0.900000E-01   1.00800           0
     21197 MEMB     182      CHL1     H19B     HAL3     0.900000E-01   1.00800           0
     21198 MEMB     182      CHL1     H19C     HAL3     0.900000E-01   1.00800           0
     21199 MEMB     182      CHL1     C1       CRL2    -0.180000       12.0110           0
     21200 MEMB     182      CHL1     H1A      HGA2     0.900000E-01   1.00800           0
     21201 MEMB     182      CHL1     H1B      HGA2     0.900000E-01   1.00800           0
     21202 MEMB     182      CHL1     C2       CRL2    -0.180000       12.0110           0
     21203 MEMB     182      CHL1     H2A      HGA2     0.900000E-01   1.00800           0
     21204 MEMB     182      CHL1     H2B      HGA2     0.900000E-01   1.00800           0
     21205 MEMB     182      CHL1     C20      CTL1    -0.900000E-01   12.0110           0
     21206 MEMB     182      CHL1     H20      HAL1     0.900000E-01   1.00800           0
     21207 MEMB     182      CHL1     C21      CTL3    -0.270000       12.0110           0
     21208 MEMB     182      CHL1     H21A     HAL3     0.900000E-01   1.00800           0
     21209 MEMB     182      CHL1     H21B     HAL3     0.900000E-01   1.00800           0
     21210 MEMB     182      CHL1     H21C     HAL3     0.900000E-01   1.00800           0
     21211 MEMB     182      CHL1     C22      CTL2    -0.180000       12.0110           0
     21212 MEMB     182      CHL1     H22A     HAL2     0.900000E-01   1.00800           0
     21213 MEMB     182      CHL1     H22B     HAL2     0.900000E-01   1.00800           0
     21214 MEMB     182      CHL1     C23      CTL2    -0.180000       12.0110           0
     21215 MEMB     182      CHL1     H23A     HAL2     0.900000E-01   1.00800           0
     21216 MEMB     182      CHL1     H23B     HAL2     0.900000E-01   1.00800           0
     21217 MEMB     182      CHL1     C24      CTL2    -0.180000       12.0110           0
     21218 MEMB     182      CHL1     H24A     HAL2     0.900000E-01   1.00800           0
     21219 MEMB     182      CHL1     H24B     HAL2     0.900000E-01   1.00800           0
     21220 MEMB     182      CHL1     C25      CTL1    -0.900000E-01   12.0110           0
     21221 MEMB     182      CHL1     H25      HAL1     0.900000E-01   1.00800           0
     21222 MEMB     182      CHL1     C26      CTL3    -0.270000       12.0110           0
     21223 MEMB     182      CHL1     H26A     HAL3     0.900000E-01   1.00800           0
     21224 MEMB     182      CHL1     H26B     HAL3     0.900000E-01   1.00800           0
     21225 MEMB     182      CHL1     H26C     HAL3     0.900000E-01   1.00800           0
     21226 MEMB     182      CHL1     C27      CTL3    -0.270000       12.0110           0
     21227 MEMB     182      CHL1     H27A     HAL3     0.900000E-01   1.00800           0
     21228 MEMB     182      CHL1     H27B     HAL3     0.900000E-01   1.00800           0
     21229 MEMB     182      CHL1     H27C     HAL3     0.900000E-01   1.00800           0
     21230 MEMB     183      OSM      N        NTL     -0.600000       14.0070           0
     21231 MEMB     183      OSM      C15      CTL5    -0.350000       12.0110           0
     21232 MEMB     183      OSM      H15A     HL       0.250000       1.00800           0
     21233 MEMB     183      OSM      H15B     HL       0.250000       1.00800           0
     21234 MEMB     183      OSM      H15C     HL       0.250000       1.00800           0
     21235 MEMB     183      OSM      C14      CTL5    -0.350000       12.0110           0
     21236 MEMB     183      OSM      H14A     HL       0.250000       1.00800           0
     21237 MEMB     183      OSM      H14B     HL       0.250000       1.00800           0
     21238 MEMB     183      OSM      H14C     HL       0.250000       1.00800           0
     21239 MEMB     183      OSM      C13      CTL5    -0.350000       12.0110           0
     21240 MEMB     183      OSM      H13A     HL       0.250000       1.00800           0
     21241 MEMB     183      OSM      H13B     HL       0.250000       1.00800           0
     21242 MEMB     183      OSM      H13C     HL       0.250000       1.00800           0
     21243 MEMB     183      OSM      C12      CTL2    -0.100000       12.0110           0
     21244 MEMB     183      OSM      H12A     HL       0.250000       1.00800           0
     21245 MEMB     183      OSM      H12B     HL       0.250000       1.00800           0
     21246 MEMB     183      OSM      C11      CTL2    -0.800000E-01   12.0110           0
     21247 MEMB     183      OSM      H11A     HAL2     0.900000E-01   1.00800           0
     21248 MEMB     183      OSM      H11B     HAL2     0.900000E-01   1.00800           0
     21249 MEMB     183      OSM      P        PL        1.50000       30.9740           0
     21250 MEMB     183      OSM      O13      O2L     -0.780000       15.9994           0
     21251 MEMB     183      OSM      O14      O2L     -0.780000       15.9994           0
     21252 MEMB     183      OSM      O11      OSLP    -0.570000       15.9994           0
     21253 MEMB     183      OSM      O12      OSLP    -0.570000       15.9994           0
     21254 MEMB     183      OSM      C1S      CTL2    -0.800000E-01   12.0110           0
     21255 MEMB     183      OSM      H1S      HAL2     0.900000E-01   1.00800           0
     21256 MEMB     183      OSM      H1T      HAL2     0.900000E-01   1.00800           0
     21257 MEMB     183      OSM      NF       NHL     -0.700000       14.0070           0
     21258 MEMB     183      OSM      HNF      H        0.350000       1.00800           0
     21259 MEMB     183      OSM      C2S      CTL1     0.300000       12.0110           0
     21260 MEMB     183      OSM      H2S      HAL1     0.500000E-01   1.00800           0
     21261 MEMB     183      OSM      C3S      CTO1     0.500000       12.0110           0
     21262 MEMB     183      OSM      H3S      HAL1    -0.110000       1.00800           0
     21263 MEMB     183      OSM      O3       OHL     -0.690000       15.9994           0
     21264 MEMB     183      OSM      HO3      HOL      0.300000       1.00800           0
     21265 MEMB     183      OSM      C4S      CEL3    -0.150000       12.0110           0
     21266 MEMB     183      OSM      H4S      HEL1     0.150000       1.00800           0
     21267 MEMB     183      OSM      C5S      CEL3    -0.150000       12.0110           0
     21268 MEMB     183      OSM      H5S      HEL1     0.150000       1.00800           0
     21269 MEMB     183      OSM      C6S      CTL2    -0.180000       12.0110           0
     21270 MEMB     183      OSM      H6S      HAL2     0.900000E-01   1.00800           0
     21271 MEMB     183      OSM      H6T      HAL2     0.900000E-01   1.00800           0
     21272 MEMB     183      OSM      C7S      CTL2    -0.180000       12.0110           0
     21273 MEMB     183      OSM      H7S      HAL2     0.900000E-01   1.00800           0
     21274 MEMB     183      OSM      H7T      HAL2     0.900000E-01   1.00800           0
     21275 MEMB     183      OSM      C8S      CTL2    -0.180000       12.0110           0
     21276 MEMB     183      OSM      H8S      HAL2     0.900000E-01   1.00800           0
     21277 MEMB     183      OSM      H8T      HAL2     0.900000E-01   1.00800           0
     21278 MEMB     183      OSM      C9S      CTL2    -0.180000       12.0110           0
     21279 MEMB     183      OSM      H9S      HAL2     0.900000E-01   1.00800           0
     21280 MEMB     183      OSM      H9T      HAL2     0.900000E-01   1.00800           0
     21281 MEMB     183      OSM      C10S     CTL2    -0.180000       12.0110           0
     21282 MEMB     183      OSM      H10S     HAL2     0.900000E-01   1.00800           0
     21283 MEMB     183      OSM      H10T     HAL2     0.900000E-01   1.00800           0
     21284 MEMB     183      OSM      C11S     CTL2    -0.180000       12.0110           0
     21285 MEMB     183      OSM      H11S     HAL2     0.900000E-01   1.00800           0
     21286 MEMB     183      OSM      H11T     HAL2     0.900000E-01   1.00800           0
     21287 MEMB     183      OSM      C12S     CTL2    -0.180000       12.0110           0
     21288 MEMB     183      OSM      H12S     HAL2     0.900000E-01   1.00800           0
     21289 MEMB     183      OSM      H12T     HAL2     0.900000E-01   1.00800           0
     21290 MEMB     183      OSM      C13S     CTL2    -0.180000       12.0110           0
     21291 MEMB     183      OSM      H13S     HAL2     0.900000E-01   1.00800           0
     21292 MEMB     183      OSM      H13T     HAL2     0.900000E-01   1.00800           0
     21293 MEMB     183      OSM      C14S     CTL2    -0.180000       12.0110           0
     21294 MEMB     183      OSM      H14S     HAL2     0.900000E-01   1.00800           0
     21295 MEMB     183      OSM      H14T     HAL2     0.900000E-01   1.00800           0
     21296 MEMB     183      OSM      C15S     CTL2    -0.180000       12.0110           0
     21297 MEMB     183      OSM      H15S     HAL2     0.900000E-01   1.00800           0
     21298 MEMB     183      OSM      H15T     HAL2     0.900000E-01   1.00800           0
     21299 MEMB     183      OSM      C16S     CTL2    -0.180000       12.0110           0
     21300 MEMB     183      OSM      H16S     HAL2     0.900000E-01   1.00800           0
     21301 MEMB     183      OSM      H16T     HAL2     0.900000E-01   1.00800           0
     21302 MEMB     183      OSM      C17S     CTL2    -0.180000       12.0110           0
     21303 MEMB     183      OSM      H17S     HAL2     0.900000E-01   1.00800           0
     21304 MEMB     183      OSM      H17T     HAL2     0.900000E-01   1.00800           0
     21305 MEMB     183      OSM      C18S     CTL3    -0.270000       12.0110           0
     21306 MEMB     183      OSM      H18S     HAL3     0.900000E-01   1.00800           0
     21307 MEMB     183      OSM      H18T     HAL3     0.900000E-01   1.00800           0
     21308 MEMB     183      OSM      H18U     HAL3     0.900000E-01   1.00800           0
     21309 MEMB     183      OSM      C1F      C        0.550000       12.0110           0
     21310 MEMB     183      OSM      OF       O       -0.600000       15.9994           0
     21311 MEMB     183      OSM      C2F      CTL2    -0.700000E-01   12.0110           0
     21312 MEMB     183      OSM      H2F      HAL2     0.600000E-01   1.00800           0
     21313 MEMB     183      OSM      H2G      HAL2     0.600000E-01   1.00800           0
     21314 MEMB     183      OSM      C3F      CTL2    -0.180000       12.0110           0
     21315 MEMB     183      OSM      H3F      HAL2     0.900000E-01   1.00800           0
     21316 MEMB     183      OSM      H3G      HAL2     0.900000E-01   1.00800           0
     21317 MEMB     183      OSM      C4F      CTL2    -0.180000       12.0110           0
     21318 MEMB     183      OSM      H4F      HAL2     0.900000E-01   1.00800           0
     21319 MEMB     183      OSM      H4G      HAL2     0.900000E-01   1.00800           0
     21320 MEMB     183      OSM      C5F      CTL2    -0.180000       12.0110           0
     21321 MEMB     183      OSM      H5F      HAL2     0.900000E-01   1.00800           0
     21322 MEMB     183      OSM      H5G      HAL2     0.900000E-01   1.00800           0
     21323 MEMB     183      OSM      C6F      CTL2    -0.180000       12.0110           0
     21324 MEMB     183      OSM      H6F      HAL2     0.900000E-01   1.00800           0
     21325 MEMB     183      OSM      H6G      HAL2     0.900000E-01   1.00800           0
     21326 MEMB     183      OSM      C7F      CTL2    -0.180000       12.0110           0
     21327 MEMB     183      OSM      H7F      HAL2     0.900000E-01   1.00800           0
     21328 MEMB     183      OSM      H7G      HAL2     0.900000E-01   1.00800           0
     21329 MEMB     183      OSM      C8F      CTL2    -0.180000       12.0110           0
     21330 MEMB     183      OSM      H8F      HAL2     0.900000E-01   1.00800           0
     21331 MEMB     183      OSM      H8G      HAL2     0.900000E-01   1.00800           0
     21332 MEMB     183      OSM      C9F      CEL1    -0.150000       12.0110           0
     21333 MEMB     183      OSM      H9F      HEL1     0.150000       1.00800           0
     21334 MEMB     183      OSM      C10F     CEL1    -0.150000       12.0110           0
     21335 MEMB     183      OSM      H10F     HEL1     0.150000       1.00800           0
     21336 MEMB     183      OSM      C11F     CTL2    -0.180000       12.0110           0
     21337 MEMB     183      OSM      H11F     HAL2     0.900000E-01   1.00800           0
     21338 MEMB     183      OSM      H11G     HAL2     0.900000E-01   1.00800           0
     21339 MEMB     183      OSM      C12F     CTL2    -0.180000       12.0110           0
     21340 MEMB     183      OSM      H12F     HAL2     0.900000E-01   1.00800           0
     21341 MEMB     183      OSM      H12G     HAL2     0.900000E-01   1.00800           0
     21342 MEMB     183      OSM      C13F     CTL2    -0.180000       12.0110           0
     21343 MEMB     183      OSM      H13F     HAL2     0.900000E-01   1.00800           0
     21344 MEMB     183      OSM      H13G     HAL2     0.900000E-01   1.00800           0
     21345 MEMB     183      OSM      C14F     CTL2    -0.180000       12.0110           0
     21346 MEMB     183      OSM      H14F     HAL2     0.900000E-01   1.00800           0
     21347 MEMB     183      OSM      H14G     HAL2     0.900000E-01   1.00800           0
     21348 MEMB     183      OSM      C15F     CTL2    -0.180000       12.0110           0
     21349 MEMB     183      OSM      H15F     HAL2     0.900000E-01   1.00800           0
     21350 MEMB     183      OSM      H15G     HAL2     0.900000E-01   1.00800           0
     21351 MEMB     183      OSM      C16F     CTL2    -0.180000       12.0110           0
     21352 MEMB     183      OSM      H16F     HAL2     0.900000E-01   1.00800           0
     21353 MEMB     183      OSM      H16G     HAL2     0.900000E-01   1.00800           0
     21354 MEMB     183      OSM      C17F     CTL2    -0.180000       12.0110           0
     21355 MEMB     183      OSM      H17F     HAL2     0.900000E-01   1.00800           0
     21356 MEMB     183      OSM      H17G     HAL2     0.900000E-01   1.00800           0
     21357 MEMB     183      OSM      C18F     CTL3    -0.270000       12.0110           0
     21358 MEMB     183      OSM      H18F     HAL3     0.900000E-01   1.00800           0
     21359 MEMB     183      OSM      H18G     HAL3     0.900000E-01   1.00800           0
     21360 MEMB     183      OSM      H18H     HAL3     0.900000E-01   1.00800           0
     21361 MEMB     184      CHL1     C3       CRL1     0.140000       12.0110           0
     21362 MEMB     184      CHL1     H3       HGA1     0.900000E-01   1.00800           0
     21363 MEMB     184      CHL1     O3       OHL     -0.660000       15.9994           0
     21364 MEMB     184      CHL1     H3'      HOL      0.430000       1.00800           0
     21365 MEMB     184      CHL1     C4       CRL2    -0.180000       12.0110           0
     21366 MEMB     184      CHL1     H4A      HGA2     0.900000E-01   1.00800           0
     21367 MEMB     184      CHL1     H4B      HGA2     0.900000E-01   1.00800           0
     21368 MEMB     184      CHL1     C5       CEL1      0.00000       12.0110           0
     21369 MEMB     184      CHL1     C6       CEL1    -0.150000       12.0110           0
     21370 MEMB     184      CHL1     H6       HEL1     0.150000       1.00800           0
     21371 MEMB     184      CHL1     C7       CRL2    -0.180000       12.0110           0
     21372 MEMB     184      CHL1     H7A      HGA2     0.900000E-01   1.00800           0
     21373 MEMB     184      CHL1     H7B      HGA2     0.900000E-01   1.00800           0
     21374 MEMB     184      CHL1     C8       CRL1    -0.900000E-01   12.0110           0
     21375 MEMB     184      CHL1     H8       HGA1     0.900000E-01   1.00800           0
     21376 MEMB     184      CHL1     C14      CRL1    -0.900000E-01   12.0110           0
     21377 MEMB     184      CHL1     H14      HGA1     0.900000E-01   1.00800           0
     21378 MEMB     184      CHL1     C15      CRL2    -0.180000       12.0110           0
     21379 MEMB     184      CHL1     H15A     HGA2     0.900000E-01   1.00800           0
     21380 MEMB     184      CHL1     H15B     HGA2     0.900000E-01   1.00800           0
     21381 MEMB     184      CHL1     C16      CRL2    -0.180000       12.0110           0
     21382 MEMB     184      CHL1     H16A     HGA2     0.900000E-01   1.00800           0
     21383 MEMB     184      CHL1     H16B     HGA2     0.900000E-01   1.00800           0
     21384 MEMB     184      CHL1     C17      CRL1    -0.900000E-01   12.0110           0
     21385 MEMB     184      CHL1     H17      HGA1     0.900000E-01   1.00800           0
     21386 MEMB     184      CHL1     C13      CRL1      0.00000       12.0110           0
     21387 MEMB     184      CHL1     C18      CTL3    -0.270000       12.0110           0
     21388 MEMB     184      CHL1     H18A     HAL3     0.900000E-01   1.00800           0
     21389 MEMB     184      CHL1     H18B     HAL3     0.900000E-01   1.00800           0
     21390 MEMB     184      CHL1     H18C     HAL3     0.900000E-01   1.00800           0
     21391 MEMB     184      CHL1     C12      CRL2    -0.180000       12.0110           0
     21392 MEMB     184      CHL1     H12A     HGA2     0.900000E-01   1.00800           0
     21393 MEMB     184      CHL1     H12B     HGA2     0.900000E-01   1.00800           0
     21394 MEMB     184      CHL1     C11      CRL2    -0.180000       12.0110           0
     21395 MEMB     184      CHL1     H11A     HGA2     0.900000E-01   1.00800           0
     21396 MEMB     184      CHL1     H11B     HGA2     0.900000E-01   1.00800           0
     21397 MEMB     184      CHL1     C9       CRL1    -0.900000E-01   12.0110           0
     21398 MEMB     184      CHL1     H9       HGA1     0.900000E-01   1.00800           0
     21399 MEMB     184      CHL1     C10      CRL1      0.00000       12.0110           0
     21400 MEMB     184      CHL1     C19      CTL3    -0.270000       12.0110           0
     21401 MEMB     184      CHL1     H19A     HAL3     0.900000E-01   1.00800           0
     21402 MEMB     184      CHL1     H19B     HAL3     0.900000E-01   1.00800           0
     21403 MEMB     184      CHL1     H19C     HAL3     0.900000E-01   1.00800           0
     21404 MEMB     184      CHL1     C1       CRL2    -0.180000       12.0110           0
     21405 MEMB     184      CHL1     H1A      HGA2     0.900000E-01   1.00800           0
     21406 MEMB     184      CHL1     H1B      HGA2     0.900000E-01   1.00800           0
     21407 MEMB     184      CHL1     C2       CRL2    -0.180000       12.0110           0
     21408 MEMB     184      CHL1     H2A      HGA2     0.900000E-01   1.00800           0
     21409 MEMB     184      CHL1     H2B      HGA2     0.900000E-01   1.00800           0
     21410 MEMB     184      CHL1     C20      CTL1    -0.900000E-01   12.0110           0
     21411 MEMB     184      CHL1     H20      HAL1     0.900000E-01   1.00800           0
     21412 MEMB     184      CHL1     C21      CTL3    -0.270000       12.0110           0
     21413 MEMB     184      CHL1     H21A     HAL3     0.900000E-01   1.00800           0
     21414 MEMB     184      CHL1     H21B     HAL3     0.900000E-01   1.00800           0
     21415 MEMB     184      CHL1     H21C     HAL3     0.900000E-01   1.00800           0
     21416 MEMB     184      CHL1     C22      CTL2    -0.180000       12.0110           0
     21417 MEMB     184      CHL1     H22A     HAL2     0.900000E-01   1.00800           0
     21418 MEMB     184      CHL1     H22B     HAL2     0.900000E-01   1.00800           0
     21419 MEMB     184      CHL1     C23      CTL2    -0.180000       12.0110           0
     21420 MEMB     184      CHL1     H23A     HAL2     0.900000E-01   1.00800           0
     21421 MEMB     184      CHL1     H23B     HAL2     0.900000E-01   1.00800           0
     21422 MEMB     184      CHL1     C24      CTL2    -0.180000       12.0110           0
     21423 MEMB     184      CHL1     H24A     HAL2     0.900000E-01   1.00800           0
     21424 MEMB     184      CHL1     H24B     HAL2     0.900000E-01   1.00800           0
     21425 MEMB     184      CHL1     C25      CTL1    -0.900000E-01   12.0110           0
     21426 MEMB     184      CHL1     H25      HAL1     0.900000E-01   1.00800           0
     21427 MEMB     184      CHL1     C26      CTL3    -0.270000       12.0110           0
     21428 MEMB     184      CHL1     H26A     HAL3     0.900000E-01   1.00800           0
     21429 MEMB     184      CHL1     H26B     HAL3     0.900000E-01   1.00800           0
     21430 MEMB     184      CHL1     H26C     HAL3     0.900000E-01   1.00800           0
     21431 MEMB     184      CHL1     C27      CTL3    -0.270000       12.0110           0
     21432 MEMB     184      CHL1     H27A     HAL3     0.900000E-01   1.00800           0
     21433 MEMB     184      CHL1     H27B     HAL3     0.900000E-01   1.00800           0
     21434 MEMB     184      CHL1     H27C     HAL3     0.900000E-01   1.00800           0
     21435 MEMB     185      SAPE     N        NH3L    -0.300000       14.0070           0
     21436 MEMB     185      SAPE     HN1      HCL      0.330000       1.00800           0
     21437 MEMB     185      SAPE     HN2      HCL      0.330000       1.00800           0
     21438 MEMB     185      SAPE     HN3      HCL      0.330000       1.00800           0
     21439 MEMB     185      SAPE     C12      CTL2     0.130000       12.0110           0
     21440 MEMB     185      SAPE     H12A     HAL2     0.900000E-01   1.00800           0
     21441 MEMB     185      SAPE     H12B     HAL2     0.900000E-01   1.00800           0
     21442 MEMB     185      SAPE     C11      CTL2    -0.800000E-01   12.0110           0
     21443 MEMB     185      SAPE     H11A     HAL2     0.900000E-01   1.00800           0
     21444 MEMB     185      SAPE     H11B     HAL2     0.900000E-01   1.00800           0
     21445 MEMB     185      SAPE     P        PL        1.50000       30.9740           0
     21446 MEMB     185      SAPE     O13      O2L     -0.780000       15.9994           0
     21447 MEMB     185      SAPE     O14      O2L     -0.780000       15.9994           0
     21448 MEMB     185      SAPE     O12      OSLP    -0.570000       15.9994           0
     21449 MEMB     185      SAPE     O11      OSLP    -0.570000       15.9994           0
     21450 MEMB     185      SAPE     C1       CTL2    -0.800000E-01   12.0110           0
     21451 MEMB     185      SAPE     HA       HAL2     0.900000E-01   1.00800           0
     21452 MEMB     185      SAPE     HB       HAL2     0.900000E-01   1.00800           0
     21453 MEMB     185      SAPE     C2       CTL1     0.170000       12.0110           0
     21454 MEMB     185      SAPE     HS       HAL1     0.900000E-01   1.00800           0
     21455 MEMB     185      SAPE     O21      OSL     -0.490000       15.9994           0
     21456 MEMB     185      SAPE     C21      CL       0.900000       12.0110           0
     21457 MEMB     185      SAPE     O22      OBL     -0.630000       15.9994           0
     21458 MEMB     185      SAPE     C22      CTL2    -0.220000       12.0110           0
     21459 MEMB     185      SAPE     H2R      HAL2     0.900000E-01   1.00800           0
     21460 MEMB     185      SAPE     H2S      HAL2     0.900000E-01   1.00800           0
     21461 MEMB     185      SAPE     C3       CTL2     0.800000E-01   12.0110           0
     21462 MEMB     185      SAPE     HX       HAL2     0.900000E-01   1.00800           0
     21463 MEMB     185      SAPE     HY       HAL2     0.900000E-01   1.00800           0
     21464 MEMB     185      SAPE     O31      OSL     -0.490000       15.9994           0
     21465 MEMB     185      SAPE     C31      CL       0.900000       12.0110           0
     21466 MEMB     185      SAPE     O32      OBL     -0.630000       15.9994           0
     21467 MEMB     185      SAPE     C32      CTL2    -0.220000       12.0110           0
     21468 MEMB     185      SAPE     H2X      HAL2     0.900000E-01   1.00800           0
     21469 MEMB     185      SAPE     H2Y      HAL2     0.900000E-01   1.00800           0
     21470 MEMB     185      SAPE     C23      CTL2    -0.180000       12.0110           0
     21471 MEMB     185      SAPE     H3R      HAL2     0.900000E-01   1.00800           0
     21472 MEMB     185      SAPE     H3S      HAL2     0.900000E-01   1.00800           0
     21473 MEMB     185      SAPE     C24      CTL2    -0.180000       12.0110           0
     21474 MEMB     185      SAPE     H4R      HAL2     0.900000E-01   1.00800           0
     21475 MEMB     185      SAPE     H4S      HAL2     0.900000E-01   1.00800           0
     21476 MEMB     185      SAPE     C25      CEL1    -0.150000       12.0110           0
     21477 MEMB     185      SAPE     H5R      HEL1     0.150000       1.00800           0
     21478 MEMB     185      SAPE     C26      CEL1    -0.150000       12.0110           0
     21479 MEMB     185      SAPE     H6R      HEL1     0.150000       1.00800           0
     21480 MEMB     185      SAPE     C27      CTL2    -0.180000       12.0110           0
     21481 MEMB     185      SAPE     H7R      HAL2     0.900000E-01   1.00800           0
     21482 MEMB     185      SAPE     H7S      HAL2     0.900000E-01   1.00800           0
     21483 MEMB     185      SAPE     C28      CEL1    -0.150000       12.0110           0
     21484 MEMB     185      SAPE     H8R      HEL1     0.150000       1.00800           0
     21485 MEMB     185      SAPE     C29      CEL1    -0.150000       12.0110           0
     21486 MEMB     185      SAPE     H9R      HEL1     0.150000       1.00800           0
     21487 MEMB     185      SAPE     C210     CTL2    -0.180000       12.0110           0
     21488 MEMB     185      SAPE     H10R     HAL2     0.900000E-01   1.00800           0
     21489 MEMB     185      SAPE     H10S     HAL2     0.900000E-01   1.00800           0
     21490 MEMB     185      SAPE     C211     CEL1    -0.150000       12.0110           0
     21491 MEMB     185      SAPE     H11R     HEL1     0.150000       1.00800           0
     21492 MEMB     185      SAPE     C212     CEL1    -0.150000       12.0110           0
     21493 MEMB     185      SAPE     H12R     HEL1     0.150000       1.00800           0
     21494 MEMB     185      SAPE     C213     CTL2    -0.180000       12.0110           0
     21495 MEMB     185      SAPE     H13R     HAL2     0.900000E-01   1.00800           0
     21496 MEMB     185      SAPE     H13S     HAL2     0.900000E-01   1.00800           0
     21497 MEMB     185      SAPE     C214     CEL1    -0.150000       12.0110           0
     21498 MEMB     185      SAPE     H14R     HEL1     0.150000       1.00800           0
     21499 MEMB     185      SAPE     C215     CEL1    -0.150000       12.0110           0
     21500 MEMB     185      SAPE     H15R     HEL1     0.150000       1.00800           0
     21501 MEMB     185      SAPE     C216     CTL2    -0.180000       12.0110           0
     21502 MEMB     185      SAPE     H16R     HAL2     0.900000E-01   1.00800           0
     21503 MEMB     185      SAPE     H16S     HAL2     0.900000E-01   1.00800           0
     21504 MEMB     185      SAPE     C217     CTL2    -0.180000       12.0110           0
     21505 MEMB     185      SAPE     H17R     HAL2     0.900000E-01   1.00800           0
     21506 MEMB     185      SAPE     H17S     HAL2     0.900000E-01   1.00800           0
     21507 MEMB     185      SAPE     C218     CTL2    -0.180000       12.0110           0
     21508 MEMB     185      SAPE     H18R     HAL2     0.900000E-01   1.00800           0
     21509 MEMB     185      SAPE     H18S     HAL2     0.900000E-01   1.00800           0
     21510 MEMB     185      SAPE     C219     CTL2    -0.180000       12.0110           0
     21511 MEMB     185      SAPE     H19R     HAL2     0.900000E-01   1.00800           0
     21512 MEMB     185      SAPE     H19S     HAL2     0.900000E-01   1.00800           0
     21513 MEMB     185      SAPE     C220     CTL3    -0.270000       12.0110           0
     21514 MEMB     185      SAPE     H20R     HAL3     0.900000E-01   1.00800           0
     21515 MEMB     185      SAPE     H20S     HAL3     0.900000E-01   1.00800           0
     21516 MEMB     185      SAPE     H20T     HAL3     0.900000E-01   1.00800           0
     21517 MEMB     185      SAPE     C33      CTL2    -0.180000       12.0110           0
     21518 MEMB     185      SAPE     H3X      HAL2     0.900000E-01   1.00800           0
     21519 MEMB     185      SAPE     H3Y      HAL2     0.900000E-01   1.00800           0
     21520 MEMB     185      SAPE     C34      CTL2    -0.180000       12.0110           0
     21521 MEMB     185      SAPE     H4X      HAL2     0.900000E-01   1.00800           0
     21522 MEMB     185      SAPE     H4Y      HAL2     0.900000E-01   1.00800           0
     21523 MEMB     185      SAPE     C35      CTL2    -0.180000       12.0110           0
     21524 MEMB     185      SAPE     H5X      HAL2     0.900000E-01   1.00800           0
     21525 MEMB     185      SAPE     H5Y      HAL2     0.900000E-01   1.00800           0
     21526 MEMB     185      SAPE     C36      CTL2    -0.180000       12.0110           0
     21527 MEMB     185      SAPE     H6X      HAL2     0.900000E-01   1.00800           0
     21528 MEMB     185      SAPE     H6Y      HAL2     0.900000E-01   1.00800           0
     21529 MEMB     185      SAPE     C37      CTL2    -0.180000       12.0110           0
     21530 MEMB     185      SAPE     H7X      HAL2     0.900000E-01   1.00800           0
     21531 MEMB     185      SAPE     H7Y      HAL2     0.900000E-01   1.00800           0
     21532 MEMB     185      SAPE     C38      CTL2    -0.180000       12.0110           0
     21533 MEMB     185      SAPE     H8X      HAL2     0.900000E-01   1.00800           0
     21534 MEMB     185      SAPE     H8Y      HAL2     0.900000E-01   1.00800           0
     21535 MEMB     185      SAPE     C39      CTL2    -0.180000       12.0110           0
     21536 MEMB     185      SAPE     H9X      HAL2     0.900000E-01   1.00800           0
     21537 MEMB     185      SAPE     H9Y      HAL2     0.900000E-01   1.00800           0
     21538 MEMB     185      SAPE     C310     CTL2    -0.180000       12.0110           0
     21539 MEMB     185      SAPE     H10X     HAL2     0.900000E-01   1.00800           0
     21540 MEMB     185      SAPE     H10Y     HAL2     0.900000E-01   1.00800           0
     21541 MEMB     185      SAPE     C311     CTL2    -0.180000       12.0110           0
     21542 MEMB     185      SAPE     H11X     HAL2     0.900000E-01   1.00800           0
     21543 MEMB     185      SAPE     H11Y     HAL2     0.900000E-01   1.00800           0
     21544 MEMB     185      SAPE     C312     CTL2    -0.180000       12.0110           0
     21545 MEMB     185      SAPE     H12X     HAL2     0.900000E-01   1.00800           0
     21546 MEMB     185      SAPE     H12Y     HAL2     0.900000E-01   1.00800           0
     21547 MEMB     185      SAPE     C313     CTL2    -0.180000       12.0110           0
     21548 MEMB     185      SAPE     H13X     HAL2     0.900000E-01   1.00800           0
     21549 MEMB     185      SAPE     H13Y     HAL2     0.900000E-01   1.00800           0
     21550 MEMB     185      SAPE     C314     CTL2    -0.180000       12.0110           0
     21551 MEMB     185      SAPE     H14X     HAL2     0.900000E-01   1.00800           0
     21552 MEMB     185      SAPE     H14Y     HAL2     0.900000E-01   1.00800           0
     21553 MEMB     185      SAPE     C315     CTL2    -0.180000       12.0110           0
     21554 MEMB     185      SAPE     H15X     HAL2     0.900000E-01   1.00800           0
     21555 MEMB     185      SAPE     H15Y     HAL2     0.900000E-01   1.00800           0
     21556 MEMB     185      SAPE     C316     CTL2    -0.180000       12.0110           0
     21557 MEMB     185      SAPE     H16X     HAL2     0.900000E-01   1.00800           0
     21558 MEMB     185      SAPE     H16Y     HAL2     0.900000E-01   1.00800           0
     21559 MEMB     185      SAPE     C317     CTL2    -0.180000       12.0110           0
     21560 MEMB     185      SAPE     H17X     HAL2     0.900000E-01   1.00800           0
     21561 MEMB     185      SAPE     H17Y     HAL2     0.900000E-01   1.00800           0
     21562 MEMB     185      SAPE     C318     CTL3    -0.270000       12.0110           0
     21563 MEMB     185      SAPE     H18X     HAL3     0.900000E-01   1.00800           0
     21564 MEMB     185      SAPE     H18Y     HAL3     0.900000E-01   1.00800           0
     21565 MEMB     185      SAPE     H18Z     HAL3     0.900000E-01   1.00800           0
     21566 MEMB     186      SAPE     N        NH3L    -0.300000       14.0070           0
     21567 MEMB     186      SAPE     HN1      HCL      0.330000       1.00800           0
     21568 MEMB     186      SAPE     HN2      HCL      0.330000       1.00800           0
     21569 MEMB     186      SAPE     HN3      HCL      0.330000       1.00800           0
     21570 MEMB     186      SAPE     C12      CTL2     0.130000       12.0110           0
     21571 MEMB     186      SAPE     H12A     HAL2     0.900000E-01   1.00800           0
     21572 MEMB     186      SAPE     H12B     HAL2     0.900000E-01   1.00800           0
     21573 MEMB     186      SAPE     C11      CTL2    -0.800000E-01   12.0110           0
     21574 MEMB     186      SAPE     H11A     HAL2     0.900000E-01   1.00800           0
     21575 MEMB     186      SAPE     H11B     HAL2     0.900000E-01   1.00800           0
     21576 MEMB     186      SAPE     P        PL        1.50000       30.9740           0
     21577 MEMB     186      SAPE     O13      O2L     -0.780000       15.9994           0
     21578 MEMB     186      SAPE     O14      O2L     -0.780000       15.9994           0
     21579 MEMB     186      SAPE     O12      OSLP    -0.570000       15.9994           0
     21580 MEMB     186      SAPE     O11      OSLP    -0.570000       15.9994           0
     21581 MEMB     186      SAPE     C1       CTL2    -0.800000E-01   12.0110           0
     21582 MEMB     186      SAPE     HA       HAL2     0.900000E-01   1.00800           0
     21583 MEMB     186      SAPE     HB       HAL2     0.900000E-01   1.00800           0
     21584 MEMB     186      SAPE     C2       CTL1     0.170000       12.0110           0
     21585 MEMB     186      SAPE     HS       HAL1     0.900000E-01   1.00800           0
     21586 MEMB     186      SAPE     O21      OSL     -0.490000       15.9994           0
     21587 MEMB     186      SAPE     C21      CL       0.900000       12.0110           0
     21588 MEMB     186      SAPE     O22      OBL     -0.630000       15.9994           0
     21589 MEMB     186      SAPE     C22      CTL2    -0.220000       12.0110           0
     21590 MEMB     186      SAPE     H2R      HAL2     0.900000E-01   1.00800           0
     21591 MEMB     186      SAPE     H2S      HAL2     0.900000E-01   1.00800           0
     21592 MEMB     186      SAPE     C3       CTL2     0.800000E-01   12.0110           0
     21593 MEMB     186      SAPE     HX       HAL2     0.900000E-01   1.00800           0
     21594 MEMB     186      SAPE     HY       HAL2     0.900000E-01   1.00800           0
     21595 MEMB     186      SAPE     O31      OSL     -0.490000       15.9994           0
     21596 MEMB     186      SAPE     C31      CL       0.900000       12.0110           0
     21597 MEMB     186      SAPE     O32      OBL     -0.630000       15.9994           0
     21598 MEMB     186      SAPE     C32      CTL2    -0.220000       12.0110           0
     21599 MEMB     186      SAPE     H2X      HAL2     0.900000E-01   1.00800           0
     21600 MEMB     186      SAPE     H2Y      HAL2     0.900000E-01   1.00800           0
     21601 MEMB     186      SAPE     C23      CTL2    -0.180000       12.0110           0
     21602 MEMB     186      SAPE     H3R      HAL2     0.900000E-01   1.00800           0
     21603 MEMB     186      SAPE     H3S      HAL2     0.900000E-01   1.00800           0
     21604 MEMB     186      SAPE     C24      CTL2    -0.180000       12.0110           0
     21605 MEMB     186      SAPE     H4R      HAL2     0.900000E-01   1.00800           0
     21606 MEMB     186      SAPE     H4S      HAL2     0.900000E-01   1.00800           0
     21607 MEMB     186      SAPE     C25      CEL1    -0.150000       12.0110           0
     21608 MEMB     186      SAPE     H5R      HEL1     0.150000       1.00800           0
     21609 MEMB     186      SAPE     C26      CEL1    -0.150000       12.0110           0
     21610 MEMB     186      SAPE     H6R      HEL1     0.150000       1.00800           0
     21611 MEMB     186      SAPE     C27      CTL2    -0.180000       12.0110           0
     21612 MEMB     186      SAPE     H7R      HAL2     0.900000E-01   1.00800           0
     21613 MEMB     186      SAPE     H7S      HAL2     0.900000E-01   1.00800           0
     21614 MEMB     186      SAPE     C28      CEL1    -0.150000       12.0110           0
     21615 MEMB     186      SAPE     H8R      HEL1     0.150000       1.00800           0
     21616 MEMB     186      SAPE     C29      CEL1    -0.150000       12.0110           0
     21617 MEMB     186      SAPE     H9R      HEL1     0.150000       1.00800           0
     21618 MEMB     186      SAPE     C210     CTL2    -0.180000       12.0110           0
     21619 MEMB     186      SAPE     H10R     HAL2     0.900000E-01   1.00800           0
     21620 MEMB     186      SAPE     H10S     HAL2     0.900000E-01   1.00800           0
     21621 MEMB     186      SAPE     C211     CEL1    -0.150000       12.0110           0
     21622 MEMB     186      SAPE     H11R     HEL1     0.150000       1.00800           0
     21623 MEMB     186      SAPE     C212     CEL1    -0.150000       12.0110           0
     21624 MEMB     186      SAPE     H12R     HEL1     0.150000       1.00800           0
     21625 MEMB     186      SAPE     C213     CTL2    -0.180000       12.0110           0
     21626 MEMB     186      SAPE     H13R     HAL2     0.900000E-01   1.00800           0
     21627 MEMB     186      SAPE     H13S     HAL2     0.900000E-01   1.00800           0
     21628 MEMB     186      SAPE     C214     CEL1    -0.150000       12.0110           0
     21629 MEMB     186      SAPE     H14R     HEL1     0.150000       1.00800           0
     21630 MEMB     186      SAPE     C215     CEL1    -0.150000       12.0110           0
     21631 MEMB     186      SAPE     H15R     HEL1     0.150000       1.00800           0
     21632 MEMB     186      SAPE     C216     CTL2    -0.180000       12.0110           0
     21633 MEMB     186      SAPE     H16R     HAL2     0.900000E-01   1.00800           0
     21634 MEMB     186      SAPE     H16S     HAL2     0.900000E-01   1.00800           0
     21635 MEMB     186      SAPE     C217     CTL2    -0.180000       12.0110           0
     21636 MEMB     186      SAPE     H17R     HAL2     0.900000E-01   1.00800           0
     21637 MEMB     186      SAPE     H17S     HAL2     0.900000E-01   1.00800           0
     21638 MEMB     186      SAPE     C218     CTL2    -0.180000       12.0110           0
     21639 MEMB     186      SAPE     H18R     HAL2     0.900000E-01   1.00800           0
     21640 MEMB     186      SAPE     H18S     HAL2     0.900000E-01   1.00800           0
     21641 MEMB     186      SAPE     C219     CTL2    -0.180000       12.0110           0
     21642 MEMB     186      SAPE     H19R     HAL2     0.900000E-01   1.00800           0
     21643 MEMB     186      SAPE     H19S     HAL2     0.900000E-01   1.00800           0
     21644 MEMB     186      SAPE     C220     CTL3    -0.270000       12.0110           0
     21645 MEMB     186      SAPE     H20R     HAL3     0.900000E-01   1.00800           0
     21646 MEMB     186      SAPE     H20S     HAL3     0.900000E-01   1.00800           0
     21647 MEMB     186      SAPE     H20T     HAL3     0.900000E-01   1.00800           0
     21648 MEMB     186      SAPE     C33      CTL2    -0.180000       12.0110           0
     21649 MEMB     186      SAPE     H3X      HAL2     0.900000E-01   1.00800           0
     21650 MEMB     186      SAPE     H3Y      HAL2     0.900000E-01   1.00800           0
     21651 MEMB     186      SAPE     C34      CTL2    -0.180000       12.0110           0
     21652 MEMB     186      SAPE     H4X      HAL2     0.900000E-01   1.00800           0
     21653 MEMB     186      SAPE     H4Y      HAL2     0.900000E-01   1.00800           0
     21654 MEMB     186      SAPE     C35      CTL2    -0.180000       12.0110           0
     21655 MEMB     186      SAPE     H5X      HAL2     0.900000E-01   1.00800           0
     21656 MEMB     186      SAPE     H5Y      HAL2     0.900000E-01   1.00800           0
     21657 MEMB     186      SAPE     C36      CTL2    -0.180000       12.0110           0
     21658 MEMB     186      SAPE     H6X      HAL2     0.900000E-01   1.00800           0
     21659 MEMB     186      SAPE     H6Y      HAL2     0.900000E-01   1.00800           0
     21660 MEMB     186      SAPE     C37      CTL2    -0.180000       12.0110           0
     21661 MEMB     186      SAPE     H7X      HAL2     0.900000E-01   1.00800           0
     21662 MEMB     186      SAPE     H7Y      HAL2     0.900000E-01   1.00800           0
     21663 MEMB     186      SAPE     C38      CTL2    -0.180000       12.0110           0
     21664 MEMB     186      SAPE     H8X      HAL2     0.900000E-01   1.00800           0
     21665 MEMB     186      SAPE     H8Y      HAL2     0.900000E-01   1.00800           0
     21666 MEMB     186      SAPE     C39      CTL2    -0.180000       12.0110           0
     21667 MEMB     186      SAPE     H9X      HAL2     0.900000E-01   1.00800           0
     21668 MEMB     186      SAPE     H9Y      HAL2     0.900000E-01   1.00800           0
     21669 MEMB     186      SAPE     C310     CTL2    -0.180000       12.0110           0
     21670 MEMB     186      SAPE     H10X     HAL2     0.900000E-01   1.00800           0
     21671 MEMB     186      SAPE     H10Y     HAL2     0.900000E-01   1.00800           0
     21672 MEMB     186      SAPE     C311     CTL2    -0.180000       12.0110           0
     21673 MEMB     186      SAPE     H11X     HAL2     0.900000E-01   1.00800           0
     21674 MEMB     186      SAPE     H11Y     HAL2     0.900000E-01   1.00800           0
     21675 MEMB     186      SAPE     C312     CTL2    -0.180000       12.0110           0
     21676 MEMB     186      SAPE     H12X     HAL2     0.900000E-01   1.00800           0
     21677 MEMB     186      SAPE     H12Y     HAL2     0.900000E-01   1.00800           0
     21678 MEMB     186      SAPE     C313     CTL2    -0.180000       12.0110           0
     21679 MEMB     186      SAPE     H13X     HAL2     0.900000E-01   1.00800           0
     21680 MEMB     186      SAPE     H13Y     HAL2     0.900000E-01   1.00800           0
     21681 MEMB     186      SAPE     C314     CTL2    -0.180000       12.0110           0
     21682 MEMB     186      SAPE     H14X     HAL2     0.900000E-01   1.00800           0
     21683 MEMB     186      SAPE     H14Y     HAL2     0.900000E-01   1.00800           0
     21684 MEMB     186      SAPE     C315     CTL2    -0.180000       12.0110           0
     21685 MEMB     186      SAPE     H15X     HAL2     0.900000E-01   1.00800           0
     21686 MEMB     186      SAPE     H15Y     HAL2     0.900000E-01   1.00800           0
     21687 MEMB     186      SAPE     C316     CTL2    -0.180000       12.0110           0
     21688 MEMB     186      SAPE     H16X     HAL2     0.900000E-01   1.00800           0
     21689 MEMB     186      SAPE     H16Y     HAL2     0.900000E-01   1.00800           0
     21690 MEMB     186      SAPE     C317     CTL2    -0.180000       12.0110           0
     21691 MEMB     186      SAPE     H17X     HAL2     0.900000E-01   1.00800           0
     21692 MEMB     186      SAPE     H17Y     HAL2     0.900000E-01   1.00800           0
     21693 MEMB     186      SAPE     C318     CTL3    -0.270000       12.0110           0
     21694 MEMB     186      SAPE     H18X     HAL3     0.900000E-01   1.00800           0
     21695 MEMB     186      SAPE     H18Y     HAL3     0.900000E-01   1.00800           0
     21696 MEMB     186      SAPE     H18Z     HAL3     0.900000E-01   1.00800           0
     21697 MEMB     187      CHL1     C3       CRL1     0.140000       12.0110           0
     21698 MEMB     187      CHL1     H3       HGA1     0.900000E-01   1.00800           0
     21699 MEMB     187      CHL1     O3       OHL     -0.660000       15.9994           0
     21700 MEMB     187      CHL1     H3'      HOL      0.430000       1.00800           0
     21701 MEMB     187      CHL1     C4       CRL2    -0.180000       12.0110           0
     21702 MEMB     187      CHL1     H4A      HGA2     0.900000E-01   1.00800           0
     21703 MEMB     187      CHL1     H4B      HGA2     0.900000E-01   1.00800           0
     21704 MEMB     187      CHL1     C5       CEL1      0.00000       12.0110           0
     21705 MEMB     187      CHL1     C6       CEL1    -0.150000       12.0110           0
     21706 MEMB     187      CHL1     H6       HEL1     0.150000       1.00800           0
     21707 MEMB     187      CHL1     C7       CRL2    -0.180000       12.0110           0
     21708 MEMB     187      CHL1     H7A      HGA2     0.900000E-01   1.00800           0
     21709 MEMB     187      CHL1     H7B      HGA2     0.900000E-01   1.00800           0
     21710 MEMB     187      CHL1     C8       CRL1    -0.900000E-01   12.0110           0
     21711 MEMB     187      CHL1     H8       HGA1     0.900000E-01   1.00800           0
     21712 MEMB     187      CHL1     C14      CRL1    -0.900000E-01   12.0110           0
     21713 MEMB     187      CHL1     H14      HGA1     0.900000E-01   1.00800           0
     21714 MEMB     187      CHL1     C15      CRL2    -0.180000       12.0110           0
     21715 MEMB     187      CHL1     H15A     HGA2     0.900000E-01   1.00800           0
     21716 MEMB     187      CHL1     H15B     HGA2     0.900000E-01   1.00800           0
     21717 MEMB     187      CHL1     C16      CRL2    -0.180000       12.0110           0
     21718 MEMB     187      CHL1     H16A     HGA2     0.900000E-01   1.00800           0
     21719 MEMB     187      CHL1     H16B     HGA2     0.900000E-01   1.00800           0
     21720 MEMB     187      CHL1     C17      CRL1    -0.900000E-01   12.0110           0
     21721 MEMB     187      CHL1     H17      HGA1     0.900000E-01   1.00800           0
     21722 MEMB     187      CHL1     C13      CRL1      0.00000       12.0110           0
     21723 MEMB     187      CHL1     C18      CTL3    -0.270000       12.0110           0
     21724 MEMB     187      CHL1     H18A     HAL3     0.900000E-01   1.00800           0
     21725 MEMB     187      CHL1     H18B     HAL3     0.900000E-01   1.00800           0
     21726 MEMB     187      CHL1     H18C     HAL3     0.900000E-01   1.00800           0
     21727 MEMB     187      CHL1     C12      CRL2    -0.180000       12.0110           0
     21728 MEMB     187      CHL1     H12A     HGA2     0.900000E-01   1.00800           0
     21729 MEMB     187      CHL1     H12B     HGA2     0.900000E-01   1.00800           0
     21730 MEMB     187      CHL1     C11      CRL2    -0.180000       12.0110           0
     21731 MEMB     187      CHL1     H11A     HGA2     0.900000E-01   1.00800           0
     21732 MEMB     187      CHL1     H11B     HGA2     0.900000E-01   1.00800           0
     21733 MEMB     187      CHL1     C9       CRL1    -0.900000E-01   12.0110           0
     21734 MEMB     187      CHL1     H9       HGA1     0.900000E-01   1.00800           0
     21735 MEMB     187      CHL1     C10      CRL1      0.00000       12.0110           0
     21736 MEMB     187      CHL1     C19      CTL3    -0.270000       12.0110           0
     21737 MEMB     187      CHL1     H19A     HAL3     0.900000E-01   1.00800           0
     21738 MEMB     187      CHL1     H19B     HAL3     0.900000E-01   1.00800           0
     21739 MEMB     187      CHL1     H19C     HAL3     0.900000E-01   1.00800           0
     21740 MEMB     187      CHL1     C1       CRL2    -0.180000       12.0110           0
     21741 MEMB     187      CHL1     H1A      HGA2     0.900000E-01   1.00800           0
     21742 MEMB     187      CHL1     H1B      HGA2     0.900000E-01   1.00800           0
     21743 MEMB     187      CHL1     C2       CRL2    -0.180000       12.0110           0
     21744 MEMB     187      CHL1     H2A      HGA2     0.900000E-01   1.00800           0
     21745 MEMB     187      CHL1     H2B      HGA2     0.900000E-01   1.00800           0
     21746 MEMB     187      CHL1     C20      CTL1    -0.900000E-01   12.0110           0
     21747 MEMB     187      CHL1     H20      HAL1     0.900000E-01   1.00800           0
     21748 MEMB     187      CHL1     C21      CTL3    -0.270000       12.0110           0
     21749 MEMB     187      CHL1     H21A     HAL3     0.900000E-01   1.00800           0
     21750 MEMB     187      CHL1     H21B     HAL3     0.900000E-01   1.00800           0
     21751 MEMB     187      CHL1     H21C     HAL3     0.900000E-01   1.00800           0
     21752 MEMB     187      CHL1     C22      CTL2    -0.180000       12.0110           0
     21753 MEMB     187      CHL1     H22A     HAL2     0.900000E-01   1.00800           0
     21754 MEMB     187      CHL1     H22B     HAL2     0.900000E-01   1.00800           0
     21755 MEMB     187      CHL1     C23      CTL2    -0.180000       12.0110           0
     21756 MEMB     187      CHL1     H23A     HAL2     0.900000E-01   1.00800           0
     21757 MEMB     187      CHL1     H23B     HAL2     0.900000E-01   1.00800           0
     21758 MEMB     187      CHL1     C24      CTL2    -0.180000       12.0110           0
     21759 MEMB     187      CHL1     H24A     HAL2     0.900000E-01   1.00800           0
     21760 MEMB     187      CHL1     H24B     HAL2     0.900000E-01   1.00800           0
     21761 MEMB     187      CHL1     C25      CTL1    -0.900000E-01   12.0110           0
     21762 MEMB     187      CHL1     H25      HAL1     0.900000E-01   1.00800           0
     21763 MEMB     187      CHL1     C26      CTL3    -0.270000       12.0110           0
     21764 MEMB     187      CHL1     H26A     HAL3     0.900000E-01   1.00800           0
     21765 MEMB     187      CHL1     H26B     HAL3     0.900000E-01   1.00800           0
     21766 MEMB     187      CHL1     H26C     HAL3     0.900000E-01   1.00800           0
     21767 MEMB     187      CHL1     C27      CTL3    -0.270000       12.0110           0
     21768 MEMB     187      CHL1     H27A     HAL3     0.900000E-01   1.00800           0
     21769 MEMB     187      CHL1     H27B     HAL3     0.900000E-01   1.00800           0
     21770 MEMB     187      CHL1     H27C     HAL3     0.900000E-01   1.00800           0
     21771 MEMB     188      OSM      N        NTL     -0.600000       14.0070           0
     21772 MEMB     188      OSM      C15      CTL5    -0.350000       12.0110           0
     21773 MEMB     188      OSM      H15A     HL       0.250000       1.00800           0
     21774 MEMB     188      OSM      H15B     HL       0.250000       1.00800           0
     21775 MEMB     188      OSM      H15C     HL       0.250000       1.00800           0
     21776 MEMB     188      OSM      C14      CTL5    -0.350000       12.0110           0
     21777 MEMB     188      OSM      H14A     HL       0.250000       1.00800           0
     21778 MEMB     188      OSM      H14B     HL       0.250000       1.00800           0
     21779 MEMB     188      OSM      H14C     HL       0.250000       1.00800           0
     21780 MEMB     188      OSM      C13      CTL5    -0.350000       12.0110           0
     21781 MEMB     188      OSM      H13A     HL       0.250000       1.00800           0
     21782 MEMB     188      OSM      H13B     HL       0.250000       1.00800           0
     21783 MEMB     188      OSM      H13C     HL       0.250000       1.00800           0
     21784 MEMB     188      OSM      C12      CTL2    -0.100000       12.0110           0
     21785 MEMB     188      OSM      H12A     HL       0.250000       1.00800           0
     21786 MEMB     188      OSM      H12B     HL       0.250000       1.00800           0
     21787 MEMB     188      OSM      C11      CTL2    -0.800000E-01   12.0110           0
     21788 MEMB     188      OSM      H11A     HAL2     0.900000E-01   1.00800           0
     21789 MEMB     188      OSM      H11B     HAL2     0.900000E-01   1.00800           0
     21790 MEMB     188      OSM      P        PL        1.50000       30.9740           0
     21791 MEMB     188      OSM      O13      O2L     -0.780000       15.9994           0
     21792 MEMB     188      OSM      O14      O2L     -0.780000       15.9994           0
     21793 MEMB     188      OSM      O11      OSLP    -0.570000       15.9994           0
     21794 MEMB     188      OSM      O12      OSLP    -0.570000       15.9994           0
     21795 MEMB     188      OSM      C1S      CTL2    -0.800000E-01   12.0110           0
     21796 MEMB     188      OSM      H1S      HAL2     0.900000E-01   1.00800           0
     21797 MEMB     188      OSM      H1T      HAL2     0.900000E-01   1.00800           0
     21798 MEMB     188      OSM      NF       NHL     -0.700000       14.0070           0
     21799 MEMB     188      OSM      HNF      H        0.350000       1.00800           0
     21800 MEMB     188      OSM      C2S      CTL1     0.300000       12.0110           0
     21801 MEMB     188      OSM      H2S      HAL1     0.500000E-01   1.00800           0
     21802 MEMB     188      OSM      C3S      CTO1     0.500000       12.0110           0
     21803 MEMB     188      OSM      H3S      HAL1    -0.110000       1.00800           0
     21804 MEMB     188      OSM      O3       OHL     -0.690000       15.9994           0
     21805 MEMB     188      OSM      HO3      HOL      0.300000       1.00800           0
     21806 MEMB     188      OSM      C4S      CEL3    -0.150000       12.0110           0
     21807 MEMB     188      OSM      H4S      HEL1     0.150000       1.00800           0
     21808 MEMB     188      OSM      C5S      CEL3    -0.150000       12.0110           0
     21809 MEMB     188      OSM      H5S      HEL1     0.150000       1.00800           0
     21810 MEMB     188      OSM      C6S      CTL2    -0.180000       12.0110           0
     21811 MEMB     188      OSM      H6S      HAL2     0.900000E-01   1.00800           0
     21812 MEMB     188      OSM      H6T      HAL2     0.900000E-01   1.00800           0
     21813 MEMB     188      OSM      C7S      CTL2    -0.180000       12.0110           0
     21814 MEMB     188      OSM      H7S      HAL2     0.900000E-01   1.00800           0
     21815 MEMB     188      OSM      H7T      HAL2     0.900000E-01   1.00800           0
     21816 MEMB     188      OSM      C8S      CTL2    -0.180000       12.0110           0
     21817 MEMB     188      OSM      H8S      HAL2     0.900000E-01   1.00800           0
     21818 MEMB     188      OSM      H8T      HAL2     0.900000E-01   1.00800           0
     21819 MEMB     188      OSM      C9S      CTL2    -0.180000       12.0110           0
     21820 MEMB     188      OSM      H9S      HAL2     0.900000E-01   1.00800           0
     21821 MEMB     188      OSM      H9T      HAL2     0.900000E-01   1.00800           0
     21822 MEMB     188      OSM      C10S     CTL2    -0.180000       12.0110           0
     21823 MEMB     188      OSM      H10S     HAL2     0.900000E-01   1.00800           0
     21824 MEMB     188      OSM      H10T     HAL2     0.900000E-01   1.00800           0
     21825 MEMB     188      OSM      C11S     CTL2    -0.180000       12.0110           0
     21826 MEMB     188      OSM      H11S     HAL2     0.900000E-01   1.00800           0
     21827 MEMB     188      OSM      H11T     HAL2     0.900000E-01   1.00800           0
     21828 MEMB     188      OSM      C12S     CTL2    -0.180000       12.0110           0
     21829 MEMB     188      OSM      H12S     HAL2     0.900000E-01   1.00800           0
     21830 MEMB     188      OSM      H12T     HAL2     0.900000E-01   1.00800           0
     21831 MEMB     188      OSM      C13S     CTL2    -0.180000       12.0110           0
     21832 MEMB     188      OSM      H13S     HAL2     0.900000E-01   1.00800           0
     21833 MEMB     188      OSM      H13T     HAL2     0.900000E-01   1.00800           0
     21834 MEMB     188      OSM      C14S     CTL2    -0.180000       12.0110           0
     21835 MEMB     188      OSM      H14S     HAL2     0.900000E-01   1.00800           0
     21836 MEMB     188      OSM      H14T     HAL2     0.900000E-01   1.00800           0
     21837 MEMB     188      OSM      C15S     CTL2    -0.180000       12.0110           0
     21838 MEMB     188      OSM      H15S     HAL2     0.900000E-01   1.00800           0
     21839 MEMB     188      OSM      H15T     HAL2     0.900000E-01   1.00800           0
     21840 MEMB     188      OSM      C16S     CTL2    -0.180000       12.0110           0
     21841 MEMB     188      OSM      H16S     HAL2     0.900000E-01   1.00800           0
     21842 MEMB     188      OSM      H16T     HAL2     0.900000E-01   1.00800           0
     21843 MEMB     188      OSM      C17S     CTL2    -0.180000       12.0110           0
     21844 MEMB     188      OSM      H17S     HAL2     0.900000E-01   1.00800           0
     21845 MEMB     188      OSM      H17T     HAL2     0.900000E-01   1.00800           0
     21846 MEMB     188      OSM      C18S     CTL3    -0.270000       12.0110           0
     21847 MEMB     188      OSM      H18S     HAL3     0.900000E-01   1.00800           0
     21848 MEMB     188      OSM      H18T     HAL3     0.900000E-01   1.00800           0
     21849 MEMB     188      OSM      H18U     HAL3     0.900000E-01   1.00800           0
     21850 MEMB     188      OSM      C1F      C        0.550000       12.0110           0
     21851 MEMB     188      OSM      OF       O       -0.600000       15.9994           0
     21852 MEMB     188      OSM      C2F      CTL2    -0.700000E-01   12.0110           0
     21853 MEMB     188      OSM      H2F      HAL2     0.600000E-01   1.00800           0
     21854 MEMB     188      OSM      H2G      HAL2     0.600000E-01   1.00800           0
     21855 MEMB     188      OSM      C3F      CTL2    -0.180000       12.0110           0
     21856 MEMB     188      OSM      H3F      HAL2     0.900000E-01   1.00800           0
     21857 MEMB     188      OSM      H3G      HAL2     0.900000E-01   1.00800           0
     21858 MEMB     188      OSM      C4F      CTL2    -0.180000       12.0110           0
     21859 MEMB     188      OSM      H4F      HAL2     0.900000E-01   1.00800           0
     21860 MEMB     188      OSM      H4G      HAL2     0.900000E-01   1.00800           0
     21861 MEMB     188      OSM      C5F      CTL2    -0.180000       12.0110           0
     21862 MEMB     188      OSM      H5F      HAL2     0.900000E-01   1.00800           0
     21863 MEMB     188      OSM      H5G      HAL2     0.900000E-01   1.00800           0
     21864 MEMB     188      OSM      C6F      CTL2    -0.180000       12.0110           0
     21865 MEMB     188      OSM      H6F      HAL2     0.900000E-01   1.00800           0
     21866 MEMB     188      OSM      H6G      HAL2     0.900000E-01   1.00800           0
     21867 MEMB     188      OSM      C7F      CTL2    -0.180000       12.0110           0
     21868 MEMB     188      OSM      H7F      HAL2     0.900000E-01   1.00800           0
     21869 MEMB     188      OSM      H7G      HAL2     0.900000E-01   1.00800           0
     21870 MEMB     188      OSM      C8F      CTL2    -0.180000       12.0110           0
     21871 MEMB     188      OSM      H8F      HAL2     0.900000E-01   1.00800           0
     21872 MEMB     188      OSM      H8G      HAL2     0.900000E-01   1.00800           0
     21873 MEMB     188      OSM      C9F      CEL1    -0.150000       12.0110           0
     21874 MEMB     188      OSM      H9F      HEL1     0.150000       1.00800           0
     21875 MEMB     188      OSM      C10F     CEL1    -0.150000       12.0110           0
     21876 MEMB     188      OSM      H10F     HEL1     0.150000       1.00800           0
     21877 MEMB     188      OSM      C11F     CTL2    -0.180000       12.0110           0
     21878 MEMB     188      OSM      H11F     HAL2     0.900000E-01   1.00800           0
     21879 MEMB     188      OSM      H11G     HAL2     0.900000E-01   1.00800           0
     21880 MEMB     188      OSM      C12F     CTL2    -0.180000       12.0110           0
     21881 MEMB     188      OSM      H12F     HAL2     0.900000E-01   1.00800           0
     21882 MEMB     188      OSM      H12G     HAL2     0.900000E-01   1.00800           0
     21883 MEMB     188      OSM      C13F     CTL2    -0.180000       12.0110           0
     21884 MEMB     188      OSM      H13F     HAL2     0.900000E-01   1.00800           0
     21885 MEMB     188      OSM      H13G     HAL2     0.900000E-01   1.00800           0
     21886 MEMB     188      OSM      C14F     CTL2    -0.180000       12.0110           0
     21887 MEMB     188      OSM      H14F     HAL2     0.900000E-01   1.00800           0
     21888 MEMB     188      OSM      H14G     HAL2     0.900000E-01   1.00800           0
     21889 MEMB     188      OSM      C15F     CTL2    -0.180000       12.0110           0
     21890 MEMB     188      OSM      H15F     HAL2     0.900000E-01   1.00800           0
     21891 MEMB     188      OSM      H15G     HAL2     0.900000E-01   1.00800           0
     21892 MEMB     188      OSM      C16F     CTL2    -0.180000       12.0110           0
     21893 MEMB     188      OSM      H16F     HAL2     0.900000E-01   1.00800           0
     21894 MEMB     188      OSM      H16G     HAL2     0.900000E-01   1.00800           0
     21895 MEMB     188      OSM      C17F     CTL2    -0.180000       12.0110           0
     21896 MEMB     188      OSM      H17F     HAL2     0.900000E-01   1.00800           0
     21897 MEMB     188      OSM      H17G     HAL2     0.900000E-01   1.00800           0
     21898 MEMB     188      OSM      C18F     CTL3    -0.270000       12.0110           0
     21899 MEMB     188      OSM      H18F     HAL3     0.900000E-01   1.00800           0
     21900 MEMB     188      OSM      H18G     HAL3     0.900000E-01   1.00800           0
     21901 MEMB     188      OSM      H18H     HAL3     0.900000E-01   1.00800           0
     21902 MEMB     189      CHL1     C3       CRL1     0.140000       12.0110           0
     21903 MEMB     189      CHL1     H3       HGA1     0.900000E-01   1.00800           0
     21904 MEMB     189      CHL1     O3       OHL     -0.660000       15.9994           0
     21905 MEMB     189      CHL1     H3'      HOL      0.430000       1.00800           0
     21906 MEMB     189      CHL1     C4       CRL2    -0.180000       12.0110           0
     21907 MEMB     189      CHL1     H4A      HGA2     0.900000E-01   1.00800           0
     21908 MEMB     189      CHL1     H4B      HGA2     0.900000E-01   1.00800           0
     21909 MEMB     189      CHL1     C5       CEL1      0.00000       12.0110           0
     21910 MEMB     189      CHL1     C6       CEL1    -0.150000       12.0110           0
     21911 MEMB     189      CHL1     H6       HEL1     0.150000       1.00800           0
     21912 MEMB     189      CHL1     C7       CRL2    -0.180000       12.0110           0
     21913 MEMB     189      CHL1     H7A      HGA2     0.900000E-01   1.00800           0
     21914 MEMB     189      CHL1     H7B      HGA2     0.900000E-01   1.00800           0
     21915 MEMB     189      CHL1     C8       CRL1    -0.900000E-01   12.0110           0
     21916 MEMB     189      CHL1     H8       HGA1     0.900000E-01   1.00800           0
     21917 MEMB     189      CHL1     C14      CRL1    -0.900000E-01   12.0110           0
     21918 MEMB     189      CHL1     H14      HGA1     0.900000E-01   1.00800           0
     21919 MEMB     189      CHL1     C15      CRL2    -0.180000       12.0110           0
     21920 MEMB     189      CHL1     H15A     HGA2     0.900000E-01   1.00800           0
     21921 MEMB     189      CHL1     H15B     HGA2     0.900000E-01   1.00800           0
     21922 MEMB     189      CHL1     C16      CRL2    -0.180000       12.0110           0
     21923 MEMB     189      CHL1     H16A     HGA2     0.900000E-01   1.00800           0
     21924 MEMB     189      CHL1     H16B     HGA2     0.900000E-01   1.00800           0
     21925 MEMB     189      CHL1     C17      CRL1    -0.900000E-01   12.0110           0
     21926 MEMB     189      CHL1     H17      HGA1     0.900000E-01   1.00800           0
     21927 MEMB     189      CHL1     C13      CRL1      0.00000       12.0110           0
     21928 MEMB     189      CHL1     C18      CTL3    -0.270000       12.0110           0
     21929 MEMB     189      CHL1     H18A     HAL3     0.900000E-01   1.00800           0
     21930 MEMB     189      CHL1     H18B     HAL3     0.900000E-01   1.00800           0
     21931 MEMB     189      CHL1     H18C     HAL3     0.900000E-01   1.00800           0
     21932 MEMB     189      CHL1     C12      CRL2    -0.180000       12.0110           0
     21933 MEMB     189      CHL1     H12A     HGA2     0.900000E-01   1.00800           0
     21934 MEMB     189      CHL1     H12B     HGA2     0.900000E-01   1.00800           0
     21935 MEMB     189      CHL1     C11      CRL2    -0.180000       12.0110           0
     21936 MEMB     189      CHL1     H11A     HGA2     0.900000E-01   1.00800           0
     21937 MEMB     189      CHL1     H11B     HGA2     0.900000E-01   1.00800           0
     21938 MEMB     189      CHL1     C9       CRL1    -0.900000E-01   12.0110           0
     21939 MEMB     189      CHL1     H9       HGA1     0.900000E-01   1.00800           0
     21940 MEMB     189      CHL1     C10      CRL1      0.00000       12.0110           0
     21941 MEMB     189      CHL1     C19      CTL3    -0.270000       12.0110           0
     21942 MEMB     189      CHL1     H19A     HAL3     0.900000E-01   1.00800           0
     21943 MEMB     189      CHL1     H19B     HAL3     0.900000E-01   1.00800           0
     21944 MEMB     189      CHL1     H19C     HAL3     0.900000E-01   1.00800           0
     21945 MEMB     189      CHL1     C1       CRL2    -0.180000       12.0110           0
     21946 MEMB     189      CHL1     H1A      HGA2     0.900000E-01   1.00800           0
     21947 MEMB     189      CHL1     H1B      HGA2     0.900000E-01   1.00800           0
     21948 MEMB     189      CHL1     C2       CRL2    -0.180000       12.0110           0
     21949 MEMB     189      CHL1     H2A      HGA2     0.900000E-01   1.00800           0
     21950 MEMB     189      CHL1     H2B      HGA2     0.900000E-01   1.00800           0
     21951 MEMB     189      CHL1     C20      CTL1    -0.900000E-01   12.0110           0
     21952 MEMB     189      CHL1     H20      HAL1     0.900000E-01   1.00800           0
     21953 MEMB     189      CHL1     C21      CTL3    -0.270000       12.0110           0
     21954 MEMB     189      CHL1     H21A     HAL3     0.900000E-01   1.00800           0
     21955 MEMB     189      CHL1     H21B     HAL3     0.900000E-01   1.00800           0
     21956 MEMB     189      CHL1     H21C     HAL3     0.900000E-01   1.00800           0
     21957 MEMB     189      CHL1     C22      CTL2    -0.180000       12.0110           0
     21958 MEMB     189      CHL1     H22A     HAL2     0.900000E-01   1.00800           0
     21959 MEMB     189      CHL1     H22B     HAL2     0.900000E-01   1.00800           0
     21960 MEMB     189      CHL1     C23      CTL2    -0.180000       12.0110           0
     21961 MEMB     189      CHL1     H23A     HAL2     0.900000E-01   1.00800           0
     21962 MEMB     189      CHL1     H23B     HAL2     0.900000E-01   1.00800           0
     21963 MEMB     189      CHL1     C24      CTL2    -0.180000       12.0110           0
     21964 MEMB     189      CHL1     H24A     HAL2     0.900000E-01   1.00800           0
     21965 MEMB     189      CHL1     H24B     HAL2     0.900000E-01   1.00800           0
     21966 MEMB     189      CHL1     C25      CTL1    -0.900000E-01   12.0110           0
     21967 MEMB     189      CHL1     H25      HAL1     0.900000E-01   1.00800           0
     21968 MEMB     189      CHL1     C26      CTL3    -0.270000       12.0110           0
     21969 MEMB     189      CHL1     H26A     HAL3     0.900000E-01   1.00800           0
     21970 MEMB     189      CHL1     H26B     HAL3     0.900000E-01   1.00800           0
     21971 MEMB     189      CHL1     H26C     HAL3     0.900000E-01   1.00800           0
     21972 MEMB     189      CHL1     C27      CTL3    -0.270000       12.0110           0
     21973 MEMB     189      CHL1     H27A     HAL3     0.900000E-01   1.00800           0
     21974 MEMB     189      CHL1     H27B     HAL3     0.900000E-01   1.00800           0
     21975 MEMB     189      CHL1     H27C     HAL3     0.900000E-01   1.00800           0
     21976 MEMB     190      SAPS     N        NH3L    -0.300000       14.0070           0
     21977 MEMB     190      SAPS     HN1      HCL      0.330000       1.00800           0
     21978 MEMB     190      SAPS     HN2      HCL      0.330000       1.00800           0
     21979 MEMB     190      SAPS     HN3      HCL      0.330000       1.00800           0
     21980 MEMB     190      SAPS     C12      CTL1     0.210000       12.0110           0
     21981 MEMB     190      SAPS     H12A     HBL      0.100000       1.00800           0
     21982 MEMB     190      SAPS     C13      CCL      0.340000       12.0110           0
     21983 MEMB     190      SAPS     O13A     OCL     -0.670000       15.9994           0
     21984 MEMB     190      SAPS     O13B     OCL     -0.670000       15.9994           0
     21985 MEMB     190      SAPS     C11      CTL2    -0.800000E-01   12.0110           0
     21986 MEMB     190      SAPS     H11A     HAL2     0.900000E-01   1.00800           0
     21987 MEMB     190      SAPS     H11B     HAL2     0.900000E-01   1.00800           0
     21988 MEMB     190      SAPS     P        PL        1.50000       30.9740           0
     21989 MEMB     190      SAPS     O13      O2L     -0.780000       15.9994           0
     21990 MEMB     190      SAPS     O14      O2L     -0.780000       15.9994           0
     21991 MEMB     190      SAPS     O12      OSLP    -0.570000       15.9994           0
     21992 MEMB     190      SAPS     O11      OSLP    -0.570000       15.9994           0
     21993 MEMB     190      SAPS     C1       CTL2    -0.800000E-01   12.0110           0
     21994 MEMB     190      SAPS     HA       HAL2     0.900000E-01   1.00800           0
     21995 MEMB     190      SAPS     HB       HAL2     0.900000E-01   1.00800           0
     21996 MEMB     190      SAPS     C2       CTL1     0.170000       12.0110           0
     21997 MEMB     190      SAPS     HS       HAL1     0.900000E-01   1.00800           0
     21998 MEMB     190      SAPS     O21      OSL     -0.490000       15.9994           0
     21999 MEMB     190      SAPS     C21      CL       0.900000       12.0110           0
     22000 MEMB     190      SAPS     O22      OBL     -0.630000       15.9994           0
     22001 MEMB     190      SAPS     C22      CTL2    -0.220000       12.0110           0
     22002 MEMB     190      SAPS     H2R      HAL2     0.900000E-01   1.00800           0
     22003 MEMB     190      SAPS     H2S      HAL2     0.900000E-01   1.00800           0
     22004 MEMB     190      SAPS     C3       CTL2     0.800000E-01   12.0110           0
     22005 MEMB     190      SAPS     HX       HAL2     0.900000E-01   1.00800           0
     22006 MEMB     190      SAPS     HY       HAL2     0.900000E-01   1.00800           0
     22007 MEMB     190      SAPS     O31      OSL     -0.490000       15.9994           0
     22008 MEMB     190      SAPS     C31      CL       0.900000       12.0110           0
     22009 MEMB     190      SAPS     O32      OBL     -0.630000       15.9994           0
     22010 MEMB     190      SAPS     C32      CTL2    -0.220000       12.0110           0
     22011 MEMB     190      SAPS     H2X      HAL2     0.900000E-01   1.00800           0
     22012 MEMB     190      SAPS     H2Y      HAL2     0.900000E-01   1.00800           0
     22013 MEMB     190      SAPS     C23      CTL2    -0.180000       12.0110           0
     22014 MEMB     190      SAPS     H3R      HAL2     0.900000E-01   1.00800           0
     22015 MEMB     190      SAPS     H3S      HAL2     0.900000E-01   1.00800           0
     22016 MEMB     190      SAPS     C24      CTL2    -0.180000       12.0110           0
     22017 MEMB     190      SAPS     H4R      HAL2     0.900000E-01   1.00800           0
     22018 MEMB     190      SAPS     H4S      HAL2     0.900000E-01   1.00800           0
     22019 MEMB     190      SAPS     C25      CEL1    -0.150000       12.0110           0
     22020 MEMB     190      SAPS     H5R      HEL1     0.150000       1.00800           0
     22021 MEMB     190      SAPS     C26      CEL1    -0.150000       12.0110           0
     22022 MEMB     190      SAPS     H6R      HEL1     0.150000       1.00800           0
     22023 MEMB     190      SAPS     C27      CTL2    -0.180000       12.0110           0
     22024 MEMB     190      SAPS     H7R      HAL2     0.900000E-01   1.00800           0
     22025 MEMB     190      SAPS     H7S      HAL2     0.900000E-01   1.00800           0
     22026 MEMB     190      SAPS     C28      CEL1    -0.150000       12.0110           0
     22027 MEMB     190      SAPS     H8R      HEL1     0.150000       1.00800           0
     22028 MEMB     190      SAPS     C29      CEL1    -0.150000       12.0110           0
     22029 MEMB     190      SAPS     H9R      HEL1     0.150000       1.00800           0
     22030 MEMB     190      SAPS     C210     CTL2    -0.180000       12.0110           0
     22031 MEMB     190      SAPS     H10R     HAL2     0.900000E-01   1.00800           0
     22032 MEMB     190      SAPS     H10S     HAL2     0.900000E-01   1.00800           0
     22033 MEMB     190      SAPS     C211     CEL1    -0.150000       12.0110           0
     22034 MEMB     190      SAPS     H11R     HEL1     0.150000       1.00800           0
     22035 MEMB     190      SAPS     C212     CEL1    -0.150000       12.0110           0
     22036 MEMB     190      SAPS     H12R     HEL1     0.150000       1.00800           0
     22037 MEMB     190      SAPS     C213     CTL2    -0.180000       12.0110           0
     22038 MEMB     190      SAPS     H13R     HAL2     0.900000E-01   1.00800           0
     22039 MEMB     190      SAPS     H13S     HAL2     0.900000E-01   1.00800           0
     22040 MEMB     190      SAPS     C214     CEL1    -0.150000       12.0110           0
     22041 MEMB     190      SAPS     H14R     HEL1     0.150000       1.00800           0
     22042 MEMB     190      SAPS     C215     CEL1    -0.150000       12.0110           0
     22043 MEMB     190      SAPS     H15R     HEL1     0.150000       1.00800           0
     22044 MEMB     190      SAPS     C216     CTL2    -0.180000       12.0110           0
     22045 MEMB     190      SAPS     H16R     HAL2     0.900000E-01   1.00800           0
     22046 MEMB     190      SAPS     H16S     HAL2     0.900000E-01   1.00800           0
     22047 MEMB     190      SAPS     C217     CTL2    -0.180000       12.0110           0
     22048 MEMB     190      SAPS     H17R     HAL2     0.900000E-01   1.00800           0
     22049 MEMB     190      SAPS     H17S     HAL2     0.900000E-01   1.00800           0
     22050 MEMB     190      SAPS     C218     CTL2    -0.180000       12.0110           0
     22051 MEMB     190      SAPS     H18R     HAL2     0.900000E-01   1.00800           0
     22052 MEMB     190      SAPS     H18S     HAL2     0.900000E-01   1.00800           0
     22053 MEMB     190      SAPS     C219     CTL2    -0.180000       12.0110           0
     22054 MEMB     190      SAPS     H19R     HAL2     0.900000E-01   1.00800           0
     22055 MEMB     190      SAPS     H19S     HAL2     0.900000E-01   1.00800           0
     22056 MEMB     190      SAPS     C220     CTL3    -0.270000       12.0110           0
     22057 MEMB     190      SAPS     H20R     HAL3     0.900000E-01   1.00800           0
     22058 MEMB     190      SAPS     H20S     HAL3     0.900000E-01   1.00800           0
     22059 MEMB     190      SAPS     H20T     HAL3     0.900000E-01   1.00800           0
     22060 MEMB     190      SAPS     C33      CTL2    -0.180000       12.0110           0
     22061 MEMB     190      SAPS     H3X      HAL2     0.900000E-01   1.00800           0
     22062 MEMB     190      SAPS     H3Y      HAL2     0.900000E-01   1.00800           0
     22063 MEMB     190      SAPS     C34      CTL2    -0.180000       12.0110           0
     22064 MEMB     190      SAPS     H4X      HAL2     0.900000E-01   1.00800           0
     22065 MEMB     190      SAPS     H4Y      HAL2     0.900000E-01   1.00800           0
     22066 MEMB     190      SAPS     C35      CTL2    -0.180000       12.0110           0
     22067 MEMB     190      SAPS     H5X      HAL2     0.900000E-01   1.00800           0
     22068 MEMB     190      SAPS     H5Y      HAL2     0.900000E-01   1.00800           0
     22069 MEMB     190      SAPS     C36      CTL2    -0.180000       12.0110           0
     22070 MEMB     190      SAPS     H6X      HAL2     0.900000E-01   1.00800           0
     22071 MEMB     190      SAPS     H6Y      HAL2     0.900000E-01   1.00800           0
     22072 MEMB     190      SAPS     C37      CTL2    -0.180000       12.0110           0
     22073 MEMB     190      SAPS     H7X      HAL2     0.900000E-01   1.00800           0
     22074 MEMB     190      SAPS     H7Y      HAL2     0.900000E-01   1.00800           0
     22075 MEMB     190      SAPS     C38      CTL2    -0.180000       12.0110           0
     22076 MEMB     190      SAPS     H8X      HAL2     0.900000E-01   1.00800           0
     22077 MEMB     190      SAPS     H8Y      HAL2     0.900000E-01   1.00800           0
     22078 MEMB     190      SAPS     C39      CTL2    -0.180000       12.0110           0
     22079 MEMB     190      SAPS     H9X      HAL2     0.900000E-01   1.00800           0
     22080 MEMB     190      SAPS     H9Y      HAL2     0.900000E-01   1.00800           0
     22081 MEMB     190      SAPS     C310     CTL2    -0.180000       12.0110           0
     22082 MEMB     190      SAPS     H10X     HAL2     0.900000E-01   1.00800           0
     22083 MEMB     190      SAPS     H10Y     HAL2     0.900000E-01   1.00800           0
     22084 MEMB     190      SAPS     C311     CTL2    -0.180000       12.0110           0
     22085 MEMB     190      SAPS     H11X     HAL2     0.900000E-01   1.00800           0
     22086 MEMB     190      SAPS     H11Y     HAL2     0.900000E-01   1.00800           0
     22087 MEMB     190      SAPS     C312     CTL2    -0.180000       12.0110           0
     22088 MEMB     190      SAPS     H12X     HAL2     0.900000E-01   1.00800           0
     22089 MEMB     190      SAPS     H12Y     HAL2     0.900000E-01   1.00800           0
     22090 MEMB     190      SAPS     C313     CTL2    -0.180000       12.0110           0
     22091 MEMB     190      SAPS     H13X     HAL2     0.900000E-01   1.00800           0
     22092 MEMB     190      SAPS     H13Y     HAL2     0.900000E-01   1.00800           0
     22093 MEMB     190      SAPS     C314     CTL2    -0.180000       12.0110           0
     22094 MEMB     190      SAPS     H14X     HAL2     0.900000E-01   1.00800           0
     22095 MEMB     190      SAPS     H14Y     HAL2     0.900000E-01   1.00800           0
     22096 MEMB     190      SAPS     C315     CTL2    -0.180000       12.0110           0
     22097 MEMB     190      SAPS     H15X     HAL2     0.900000E-01   1.00800           0
     22098 MEMB     190      SAPS     H15Y     HAL2     0.900000E-01   1.00800           0
     22099 MEMB     190      SAPS     C316     CTL2    -0.180000       12.0110           0
     22100 MEMB     190      SAPS     H16X     HAL2     0.900000E-01   1.00800           0
     22101 MEMB     190      SAPS     H16Y     HAL2     0.900000E-01   1.00800           0
     22102 MEMB     190      SAPS     C317     CTL2    -0.180000       12.0110           0
     22103 MEMB     190      SAPS     H17X     HAL2     0.900000E-01   1.00800           0
     22104 MEMB     190      SAPS     H17Y     HAL2     0.900000E-01   1.00800           0
     22105 MEMB     190      SAPS     C318     CTL3    -0.270000       12.0110           0
     22106 MEMB     190      SAPS     H18X     HAL3     0.900000E-01   1.00800           0
     22107 MEMB     190      SAPS     H18Y     HAL3     0.900000E-01   1.00800           0
     22108 MEMB     190      SAPS     H18Z     HAL3     0.900000E-01   1.00800           0
     22109 MEMB     191      CHL1     C3       CRL1     0.140000       12.0110           0
     22110 MEMB     191      CHL1     H3       HGA1     0.900000E-01   1.00800           0
     22111 MEMB     191      CHL1     O3       OHL     -0.660000       15.9994           0
     22112 MEMB     191      CHL1     H3'      HOL      0.430000       1.00800           0
     22113 MEMB     191      CHL1     C4       CRL2    -0.180000       12.0110           0
     22114 MEMB     191      CHL1     H4A      HGA2     0.900000E-01   1.00800           0
     22115 MEMB     191      CHL1     H4B      HGA2     0.900000E-01   1.00800           0
     22116 MEMB     191      CHL1     C5       CEL1      0.00000       12.0110           0
     22117 MEMB     191      CHL1     C6       CEL1    -0.150000       12.0110           0
     22118 MEMB     191      CHL1     H6       HEL1     0.150000       1.00800           0
     22119 MEMB     191      CHL1     C7       CRL2    -0.180000       12.0110           0
     22120 MEMB     191      CHL1     H7A      HGA2     0.900000E-01   1.00800           0
     22121 MEMB     191      CHL1     H7B      HGA2     0.900000E-01   1.00800           0
     22122 MEMB     191      CHL1     C8       CRL1    -0.900000E-01   12.0110           0
     22123 MEMB     191      CHL1     H8       HGA1     0.900000E-01   1.00800           0
     22124 MEMB     191      CHL1     C14      CRL1    -0.900000E-01   12.0110           0
     22125 MEMB     191      CHL1     H14      HGA1     0.900000E-01   1.00800           0
     22126 MEMB     191      CHL1     C15      CRL2    -0.180000       12.0110           0
     22127 MEMB     191      CHL1     H15A     HGA2     0.900000E-01   1.00800           0
     22128 MEMB     191      CHL1     H15B     HGA2     0.900000E-01   1.00800           0
     22129 MEMB     191      CHL1     C16      CRL2    -0.180000       12.0110           0
     22130 MEMB     191      CHL1     H16A     HGA2     0.900000E-01   1.00800           0
     22131 MEMB     191      CHL1     H16B     HGA2     0.900000E-01   1.00800           0
     22132 MEMB     191      CHL1     C17      CRL1    -0.900000E-01   12.0110           0
     22133 MEMB     191      CHL1     H17      HGA1     0.900000E-01   1.00800           0
     22134 MEMB     191      CHL1     C13      CRL1      0.00000       12.0110           0
     22135 MEMB     191      CHL1     C18      CTL3    -0.270000       12.0110           0
     22136 MEMB     191      CHL1     H18A     HAL3     0.900000E-01   1.00800           0
     22137 MEMB     191      CHL1     H18B     HAL3     0.900000E-01   1.00800           0
     22138 MEMB     191      CHL1     H18C     HAL3     0.900000E-01   1.00800           0
     22139 MEMB     191      CHL1     C12      CRL2    -0.180000       12.0110           0
     22140 MEMB     191      CHL1     H12A     HGA2     0.900000E-01   1.00800           0
     22141 MEMB     191      CHL1     H12B     HGA2     0.900000E-01   1.00800           0
     22142 MEMB     191      CHL1     C11      CRL2    -0.180000       12.0110           0
     22143 MEMB     191      CHL1     H11A     HGA2     0.900000E-01   1.00800           0
     22144 MEMB     191      CHL1     H11B     HGA2     0.900000E-01   1.00800           0
     22145 MEMB     191      CHL1     C9       CRL1    -0.900000E-01   12.0110           0
     22146 MEMB     191      CHL1     H9       HGA1     0.900000E-01   1.00800           0
     22147 MEMB     191      CHL1     C10      CRL1      0.00000       12.0110           0
     22148 MEMB     191      CHL1     C19      CTL3    -0.270000       12.0110           0
     22149 MEMB     191      CHL1     H19A     HAL3     0.900000E-01   1.00800           0
     22150 MEMB     191      CHL1     H19B     HAL3     0.900000E-01   1.00800           0
     22151 MEMB     191      CHL1     H19C     HAL3     0.900000E-01   1.00800           0
     22152 MEMB     191      CHL1     C1       CRL2    -0.180000       12.0110           0
     22153 MEMB     191      CHL1     H1A      HGA2     0.900000E-01   1.00800           0
     22154 MEMB     191      CHL1     H1B      HGA2     0.900000E-01   1.00800           0
     22155 MEMB     191      CHL1     C2       CRL2    -0.180000       12.0110           0
     22156 MEMB     191      CHL1     H2A      HGA2     0.900000E-01   1.00800           0
     22157 MEMB     191      CHL1     H2B      HGA2     0.900000E-01   1.00800           0
     22158 MEMB     191      CHL1     C20      CTL1    -0.900000E-01   12.0110           0
     22159 MEMB     191      CHL1     H20      HAL1     0.900000E-01   1.00800           0
     22160 MEMB     191      CHL1     C21      CTL3    -0.270000       12.0110           0
     22161 MEMB     191      CHL1     H21A     HAL3     0.900000E-01   1.00800           0
     22162 MEMB     191      CHL1     H21B     HAL3     0.900000E-01   1.00800           0
     22163 MEMB     191      CHL1     H21C     HAL3     0.900000E-01   1.00800           0
     22164 MEMB     191      CHL1     C22      CTL2    -0.180000       12.0110           0
     22165 MEMB     191      CHL1     H22A     HAL2     0.900000E-01   1.00800           0
     22166 MEMB     191      CHL1     H22B     HAL2     0.900000E-01   1.00800           0
     22167 MEMB     191      CHL1     C23      CTL2    -0.180000       12.0110           0
     22168 MEMB     191      CHL1     H23A     HAL2     0.900000E-01   1.00800           0
     22169 MEMB     191      CHL1     H23B     HAL2     0.900000E-01   1.00800           0
     22170 MEMB     191      CHL1     C24      CTL2    -0.180000       12.0110           0
     22171 MEMB     191      CHL1     H24A     HAL2     0.900000E-01   1.00800           0
     22172 MEMB     191      CHL1     H24B     HAL2     0.900000E-01   1.00800           0
     22173 MEMB     191      CHL1     C25      CTL1    -0.900000E-01   12.0110           0
     22174 MEMB     191      CHL1     H25      HAL1     0.900000E-01   1.00800           0
     22175 MEMB     191      CHL1     C26      CTL3    -0.270000       12.0110           0
     22176 MEMB     191      CHL1     H26A     HAL3     0.900000E-01   1.00800           0
     22177 MEMB     191      CHL1     H26B     HAL3     0.900000E-01   1.00800           0
     22178 MEMB     191      CHL1     H26C     HAL3     0.900000E-01   1.00800           0
     22179 MEMB     191      CHL1     C27      CTL3    -0.270000       12.0110           0
     22180 MEMB     191      CHL1     H27A     HAL3     0.900000E-01   1.00800           0
     22181 MEMB     191      CHL1     H27B     HAL3     0.900000E-01   1.00800           0
     22182 MEMB     191      CHL1     H27C     HAL3     0.900000E-01   1.00800           0
     22183 MEMB     192      SLPC     N        NTL     -0.600000       14.0070           0
     22184 MEMB     192      SLPC     C13      CTL5    -0.350000       12.0110           0
     22185 MEMB     192      SLPC     H13A     HL       0.250000       1.00800           0
     22186 MEMB     192      SLPC     H13B     HL       0.250000       1.00800           0
     22187 MEMB     192      SLPC     H13C     HL       0.250000       1.00800           0
     22188 MEMB     192      SLPC     C14      CTL5    -0.350000       12.0110           0
     22189 MEMB     192      SLPC     H14A     HL       0.250000       1.00800           0
     22190 MEMB     192      SLPC     H14B     HL       0.250000       1.00800           0
     22191 MEMB     192      SLPC     H14C     HL       0.250000       1.00800           0
     22192 MEMB     192      SLPC     C15      CTL5    -0.350000       12.0110           0
     22193 MEMB     192      SLPC     H15A     HL       0.250000       1.00800           0
     22194 MEMB     192      SLPC     H15B     HL       0.250000       1.00800           0
     22195 MEMB     192      SLPC     H15C     HL       0.250000       1.00800           0
     22196 MEMB     192      SLPC     C12      CTL2    -0.100000       12.0110           0
     22197 MEMB     192      SLPC     H12A     HL       0.250000       1.00800           0
     22198 MEMB     192      SLPC     H12B     HL       0.250000       1.00800           0
     22199 MEMB     192      SLPC     C11      CTL2    -0.800000E-01   12.0110           0
     22200 MEMB     192      SLPC     H11A     HAL2     0.900000E-01   1.00800           0
     22201 MEMB     192      SLPC     H11B     HAL2     0.900000E-01   1.00800           0
     22202 MEMB     192      SLPC     P        PL        1.50000       30.9740           0
     22203 MEMB     192      SLPC     O13      O2L     -0.780000       15.9994           0
     22204 MEMB     192      SLPC     O14      O2L     -0.780000       15.9994           0
     22205 MEMB     192      SLPC     O12      OSLP    -0.570000       15.9994           0
     22206 MEMB     192      SLPC     O11      OSLP    -0.570000       15.9994           0
     22207 MEMB     192      SLPC     C1       CTL2    -0.800000E-01   12.0110           0
     22208 MEMB     192      SLPC     HA       HAL2     0.900000E-01   1.00800           0
     22209 MEMB     192      SLPC     HB       HAL2     0.900000E-01   1.00800           0
     22210 MEMB     192      SLPC     C2       CTL1     0.170000       12.0110           0
     22211 MEMB     192      SLPC     HS       HAL1     0.900000E-01   1.00800           0
     22212 MEMB     192      SLPC     O21      OSL     -0.490000       15.9994           0
     22213 MEMB     192      SLPC     C21      CL       0.900000       12.0110           0
     22214 MEMB     192      SLPC     O22      OBL     -0.630000       15.9994           0
     22215 MEMB     192      SLPC     C22      CTL2    -0.220000       12.0110           0
     22216 MEMB     192      SLPC     H2R      HAL2     0.900000E-01   1.00800           0
     22217 MEMB     192      SLPC     H2S      HAL2     0.900000E-01   1.00800           0
     22218 MEMB     192      SLPC     C3       CTL2     0.800000E-01   12.0110           0
     22219 MEMB     192      SLPC     HX       HAL2     0.900000E-01   1.00800           0
     22220 MEMB     192      SLPC     HY       HAL2     0.900000E-01   1.00800           0
     22221 MEMB     192      SLPC     O31      OSL     -0.490000       15.9994           0
     22222 MEMB     192      SLPC     C31      CL       0.900000       12.0110           0
     22223 MEMB     192      SLPC     O32      OBL     -0.630000       15.9994           0
     22224 MEMB     192      SLPC     C32      CTL2    -0.220000       12.0110           0
     22225 MEMB     192      SLPC     H2X      HAL2     0.900000E-01   1.00800           0
     22226 MEMB     192      SLPC     H2Y      HAL2     0.900000E-01   1.00800           0
     22227 MEMB     192      SLPC     C23      CTL2    -0.180000       12.0110           0
     22228 MEMB     192      SLPC     H3R      HAL2     0.900000E-01   1.00800           0
     22229 MEMB     192      SLPC     H3S      HAL2     0.900000E-01   1.00800           0
     22230 MEMB     192      SLPC     C24      CTL2    -0.180000       12.0110           0
     22231 MEMB     192      SLPC     H4R      HAL2     0.900000E-01   1.00800           0
     22232 MEMB     192      SLPC     H4S      HAL2     0.900000E-01   1.00800           0
     22233 MEMB     192      SLPC     C25      CTL2    -0.180000       12.0110           0
     22234 MEMB     192      SLPC     H5R      HAL2     0.900000E-01   1.00800           0
     22235 MEMB     192      SLPC     H5S      HAL2     0.900000E-01   1.00800           0
     22236 MEMB     192      SLPC     C26      CTL2    -0.180000       12.0110           0
     22237 MEMB     192      SLPC     H6R      HAL2     0.900000E-01   1.00800           0
     22238 MEMB     192      SLPC     H6S      HAL2     0.900000E-01   1.00800           0
     22239 MEMB     192      SLPC     C27      CTL2    -0.180000       12.0110           0
     22240 MEMB     192      SLPC     H7R      HAL2     0.900000E-01   1.00800           0
     22241 MEMB     192      SLPC     H7S      HAL2     0.900000E-01   1.00800           0
     22242 MEMB     192      SLPC     C28      CTL2    -0.180000       12.0110           0
     22243 MEMB     192      SLPC     H8R      HAL2     0.900000E-01   1.00800           0
     22244 MEMB     192      SLPC     H8S      HAL2     0.900000E-01   1.00800           0
     22245 MEMB     192      SLPC     C29      CEL1    -0.150000       12.0110           0
     22246 MEMB     192      SLPC     H9R      HEL1     0.150000       1.00800           0
     22247 MEMB     192      SLPC     C210     CEL1    -0.150000       12.0110           0
     22248 MEMB     192      SLPC     H10R     HEL1     0.150000       1.00800           0
     22249 MEMB     192      SLPC     C211     CTL2    -0.180000       12.0110           0
     22250 MEMB     192      SLPC     H11R     HAL2     0.900000E-01   1.00800           0
     22251 MEMB     192      SLPC     H11S     HAL2     0.900000E-01   1.00800           0
     22252 MEMB     192      SLPC     C212     CEL1    -0.150000       12.0110           0
     22253 MEMB     192      SLPC     H12R     HEL1     0.150000       1.00800           0
     22254 MEMB     192      SLPC     C213     CEL1    -0.150000       12.0110           0
     22255 MEMB     192      SLPC     H13R     HEL1     0.150000       1.00800           0
     22256 MEMB     192      SLPC     C214     CTL2    -0.180000       12.0110           0
     22257 MEMB     192      SLPC     H14R     HAL2     0.900000E-01   1.00800           0
     22258 MEMB     192      SLPC     H14S     HAL2     0.900000E-01   1.00800           0
     22259 MEMB     192      SLPC     C215     CTL2    -0.180000       12.0110           0
     22260 MEMB     192      SLPC     H15R     HAL2     0.900000E-01   1.00800           0
     22261 MEMB     192      SLPC     H15S     HAL2     0.900000E-01   1.00800           0
     22262 MEMB     192      SLPC     C216     CTL2    -0.180000       12.0110           0
     22263 MEMB     192      SLPC     H16R     HAL2     0.900000E-01   1.00800           0
     22264 MEMB     192      SLPC     H16S     HAL2     0.900000E-01   1.00800           0
     22265 MEMB     192      SLPC     C217     CTL2    -0.180000       12.0110           0
     22266 MEMB     192      SLPC     H17R     HAL2     0.900000E-01   1.00800           0
     22267 MEMB     192      SLPC     H17S     HAL2     0.900000E-01   1.00800           0
     22268 MEMB     192      SLPC     C218     CTL3    -0.270000       12.0110           0
     22269 MEMB     192      SLPC     H18R     HAL3     0.900000E-01   1.00800           0
     22270 MEMB     192      SLPC     H18S     HAL3     0.900000E-01   1.00800           0
     22271 MEMB     192      SLPC     H18T     HAL3     0.900000E-01   1.00800           0
     22272 MEMB     192      SLPC     C33      CTL2    -0.180000       12.0110           0
     22273 MEMB     192      SLPC     H3X      HAL2     0.900000E-01   1.00800           0
     22274 MEMB     192      SLPC     H3Y      HAL2     0.900000E-01   1.00800           0
     22275 MEMB     192      SLPC     C34      CTL2    -0.180000       12.0110           0
     22276 MEMB     192      SLPC     H4X      HAL2     0.900000E-01   1.00800           0
     22277 MEMB     192      SLPC     H4Y      HAL2     0.900000E-01   1.00800           0
     22278 MEMB     192      SLPC     C35      CTL2    -0.180000       12.0110           0
     22279 MEMB     192      SLPC     H5X      HAL2     0.900000E-01   1.00800           0
     22280 MEMB     192      SLPC     H5Y      HAL2     0.900000E-01   1.00800           0
     22281 MEMB     192      SLPC     C36      CTL2    -0.180000       12.0110           0
     22282 MEMB     192      SLPC     H6X      HAL2     0.900000E-01   1.00800           0
     22283 MEMB     192      SLPC     H6Y      HAL2     0.900000E-01   1.00800           0
     22284 MEMB     192      SLPC     C37      CTL2    -0.180000       12.0110           0
     22285 MEMB     192      SLPC     H7X      HAL2     0.900000E-01   1.00800           0
     22286 MEMB     192      SLPC     H7Y      HAL2     0.900000E-01   1.00800           0
     22287 MEMB     192      SLPC     C38      CTL2    -0.180000       12.0110           0
     22288 MEMB     192      SLPC     H8X      HAL2     0.900000E-01   1.00800           0
     22289 MEMB     192      SLPC     H8Y      HAL2     0.900000E-01   1.00800           0
     22290 MEMB     192      SLPC     C39      CTL2    -0.180000       12.0110           0
     22291 MEMB     192      SLPC     H9X      HAL2     0.900000E-01   1.00800           0
     22292 MEMB     192      SLPC     H9Y      HAL2     0.900000E-01   1.00800           0
     22293 MEMB     192      SLPC     C310     CTL2    -0.180000       12.0110           0
     22294 MEMB     192      SLPC     H10X     HAL2     0.900000E-01   1.00800           0
     22295 MEMB     192      SLPC     H10Y     HAL2     0.900000E-01   1.00800           0
     22296 MEMB     192      SLPC     C311     CTL2    -0.180000       12.0110           0
     22297 MEMB     192      SLPC     H11X     HAL2     0.900000E-01   1.00800           0
     22298 MEMB     192      SLPC     H11Y     HAL2     0.900000E-01   1.00800           0
     22299 MEMB     192      SLPC     C312     CTL2    -0.180000       12.0110           0
     22300 MEMB     192      SLPC     H12X     HAL2     0.900000E-01   1.00800           0
     22301 MEMB     192      SLPC     H12Y     HAL2     0.900000E-01   1.00800           0
     22302 MEMB     192      SLPC     C313     CTL2    -0.180000       12.0110           0
     22303 MEMB     192      SLPC     H13X     HAL2     0.900000E-01   1.00800           0
     22304 MEMB     192      SLPC     H13Y     HAL2     0.900000E-01   1.00800           0
     22305 MEMB     192      SLPC     C314     CTL2    -0.180000       12.0110           0
     22306 MEMB     192      SLPC     H14X     HAL2     0.900000E-01   1.00800           0
     22307 MEMB     192      SLPC     H14Y     HAL2     0.900000E-01   1.00800           0
     22308 MEMB     192      SLPC     C315     CTL2    -0.180000       12.0110           0
     22309 MEMB     192      SLPC     H15X     HAL2     0.900000E-01   1.00800           0
     22310 MEMB     192      SLPC     H15Y     HAL2     0.900000E-01   1.00800           0
     22311 MEMB     192      SLPC     C316     CTL2    -0.180000       12.0110           0
     22312 MEMB     192      SLPC     H16X     HAL2     0.900000E-01   1.00800           0
     22313 MEMB     192      SLPC     H16Y     HAL2     0.900000E-01   1.00800           0
     22314 MEMB     192      SLPC     C317     CTL2    -0.180000       12.0110           0
     22315 MEMB     192      SLPC     H17X     HAL2     0.900000E-01   1.00800           0
     22316 MEMB     192      SLPC     H17Y     HAL2     0.900000E-01   1.00800           0
     22317 MEMB     192      SLPC     C318     CTL3    -0.270000       12.0110           0
     22318 MEMB     192      SLPC     H18X     HAL3     0.900000E-01   1.00800           0
     22319 MEMB     192      SLPC     H18Y     HAL3     0.900000E-01   1.00800           0
     22320 MEMB     192      SLPC     H18Z     HAL3     0.900000E-01   1.00800           0
     22321 TIP3     1        TIP3     OH2      OT      -0.834000       15.9994           0
     22322 TIP3     1        TIP3     H1       HT       0.417000       1.00800           0
     22323 TIP3     1        TIP3     H2       HT       0.417000       1.00800           0
     22324 TIP3     2        TIP3     OH2      OT      -0.834000       15.9994           0
     22325 TIP3     2        TIP3     H1       HT       0.417000       1.00800           0
     22326 TIP3     2        TIP3     H2       HT       0.417000       1.00800           0
     22327 TIP3     3        TIP3     OH2      OT      -0.834000       15.9994           0
     22328 TIP3     3        TIP3     H1       HT       0.417000       1.00800           0
     22329 TIP3     3        TIP3     H2       HT       0.417000       1.00800           0
     22330 TIP3     4        TIP3     OH2      OT      -0.834000       15.9994           0
     22331 TIP3     4        TIP3     H1       HT       0.417000       1.00800           0
     22332 TIP3     4        TIP3     H2       HT       0.417000       1.00800           0
     22333 TIP3     5        TIP3     OH2      OT      -0.834000       15.9994           0
     22334 TIP3     5        TIP3     H1       HT       0.417000       1.00800           0
     22335 TIP3     5        TIP3     H2       HT       0.417000       1.00800           0
     22336 TIP3     6        TIP3     OH2      OT      -0.834000       15.9994           0
     22337 TIP3     6        TIP3     H1       HT       0.417000       1.00800           0
     22338 TIP3     6        TIP3     H2       HT       0.417000       1.00800           0
     22339 TIP3     7        TIP3     OH2      OT      -0.834000       15.9994           0
     22340 TIP3     7        TIP3     H1       HT       0.417000       1.00800           0
     22341 TIP3     7        TIP3     H2       HT       0.417000       1.00800           0
     22342 TIP3     8        TIP3     OH2      OT      -0.834000       15.9994           0
     22343 TIP3     8        TIP3     H1       HT       0.417000       1.00800           0
     22344 TIP3     8        TIP3     H2       HT       0.417000       1.00800           0
     22345 TIP3     9        TIP3     OH2      OT      -0.834000       15.9994           0
     22346 TIP3     9        TIP3     H1       HT       0.417000       1.00800           0
     22347 TIP3     9        TIP3     H2       HT       0.417000       1.00800           0
     22348 TIP3     10       TIP3     OH2      OT      -0.834000       15.9994           0
     22349 TIP3     10       TIP3     H1       HT       0.417000       1.00800           0
     22350 TIP3     10       TIP3     H2       HT       0.417000       1.00800           0
     22351 TIP3     11       TIP3     OH2      OT      -0.834000       15.9994           0
     22352 TIP3     11       TIP3     H1       HT       0.417000       1.00800           0
     22353 TIP3     11       TIP3     H2       HT       0.417000       1.00800           0
     22354 TIP3     12       TIP3     OH2      OT      -0.834000       15.9994           0
     22355 TIP3     12       TIP3     H1       HT       0.417000       1.00800           0
     22356 TIP3     12       TIP3     H2       HT       0.417000       1.00800           0
     22357 TIP3     13       TIP3     OH2      OT      -0.834000       15.9994           0
     22358 TIP3     13       TIP3     H1       HT       0.417000       1.00800           0
     22359 TIP3     13       TIP3     H2       HT       0.417000       1.00800           0
     22360 TIP3     14       TIP3     OH2      OT      -0.834000       15.9994           0
     22361 TIP3     14       TIP3     H1       HT       0.417000       1.00800           0
     22362 TIP3     14       TIP3     H2       HT       0.417000       1.00800           0
     22363 TIP3     15       TIP3     OH2      OT      -0.834000       15.9994           0
     22364 TIP3     15       TIP3     H1       HT       0.417000       1.00800           0
     22365 TIP3     15       TIP3     H2       HT       0.417000       1.00800           0
     22366 TIP3     16       TIP3     OH2      OT      -0.834000       15.9994           0
     22367 TIP3     16       TIP3     H1       HT       0.417000       1.00800           0
     22368 TIP3     16       TIP3     H2       HT       0.417000       1.00800           0
     22369 TIP3     17       TIP3     OH2      OT      -0.834000       15.9994           0
     22370 TIP3     17       TIP3     H1       HT       0.417000       1.00800           0
     22371 TIP3     17       TIP3     H2       HT       0.417000       1.00800           0
     22372 TIP3     18       TIP3     OH2      OT      -0.834000       15.9994           0
     22373 TIP3     18       TIP3     H1       HT       0.417000       1.00800           0
     22374 TIP3     18       TIP3     H2       HT       0.417000       1.00800           0
     22375 TIP3     19       TIP3     OH2      OT      -0.834000       15.9994           0
     22376 TIP3     19       TIP3     H1       HT       0.417000       1.00800           0
     22377 TIP3     19       TIP3     H2       HT       0.417000       1.00800           0
     22378 TIP3     20       TIP3     OH2      OT      -0.834000       15.9994           0
     22379 TIP3     20       TIP3     H1       HT       0.417000       1.00800           0
     22380 TIP3     20       TIP3     H2       HT       0.417000       1.00800           0
     22381 TIP3     21       TIP3     OH2      OT      -0.834000       15.9994           0
     22382 TIP3     21       TIP3     H1       HT       0.417000       1.00800           0
     22383 TIP3     21       TIP3     H2       HT       0.417000       1.00800           0
     22384 TIP3     22       TIP3     OH2      OT      -0.834000       15.9994           0
     22385 TIP3     22       TIP3     H1       HT       0.417000       1.00800           0
     22386 TIP3     22       TIP3     H2       HT       0.417000       1.00800           0
     22387 TIP3     23       TIP3     OH2      OT      -0.834000       15.9994           0
     22388 TIP3     23       TIP3     H1       HT       0.417000       1.00800           0
     22389 TIP3     23       TIP3     H2       HT       0.417000       1.00800           0
     22390 TIP3     24       TIP3     OH2      OT      -0.834000       15.9994           0
     22391 TIP3     24       TIP3     H1       HT       0.417000       1.00800           0
     22392 TIP3     24       TIP3     H2       HT       0.417000       1.00800           0
     22393 TIP3     25       TIP3     OH2      OT      -0.834000       15.9994           0
     22394 TIP3     25       TIP3     H1       HT       0.417000       1.00800           0
     22395 TIP3     25       TIP3     H2       HT       0.417000       1.00800           0
     22396 TIP3     26       TIP3     OH2      OT      -0.834000       15.9994           0
     22397 TIP3     26       TIP3     H1       HT       0.417000       1.00800           0
     22398 TIP3     26       TIP3     H2       HT       0.417000       1.00800           0
     22399 TIP3     27       TIP3     OH2      OT      -0.834000       15.9994           0
     22400 TIP3     27       TIP3     H1       HT       0.417000       1.00800           0
     22401 TIP3     27       TIP3     H2       HT       0.417000       1.00800           0
     22402 TIP3     28       TIP3     OH2      OT      -0.834000       15.9994           0
     22403 TIP3     28       TIP3     H1       HT       0.417000       1.00800           0
     22404 TIP3     28       TIP3     H2       HT       0.417000       1.00800           0
     22405 TIP3     29       TIP3     OH2      OT      -0.834000       15.9994           0
     22406 TIP3     29       TIP3     H1       HT       0.417000       1.00800           0
     22407 TIP3     29       TIP3     H2       HT       0.417000       1.00800           0
     22408 TIP3     30       TIP3     OH2      OT      -0.834000       15.9994           0
     22409 TIP3     30       TIP3     H1       HT       0.417000       1.00800           0
     22410 TIP3     30       TIP3     H2       HT       0.417000       1.00800           0
     22411 TIP3     31       TIP3     OH2      OT      -0.834000       15.9994           0
     22412 TIP3     31       TIP3     H1       HT       0.417000       1.00800           0
     22413 TIP3     31       TIP3     H2       HT       0.417000       1.00800           0
     22414 TIP3     32       TIP3     OH2      OT      -0.834000       15.9994           0
     22415 TIP3     32       TIP3     H1       HT       0.417000       1.00800           0
     22416 TIP3     32       TIP3     H2       HT       0.417000       1.00800           0
     22417 TIP3     33       TIP3     OH2      OT      -0.834000       15.9994           0
     22418 TIP3     33       TIP3     H1       HT       0.417000       1.00800           0
     22419 TIP3     33       TIP3     H2       HT       0.417000       1.00800           0
     22420 TIP3     34       TIP3     OH2      OT      -0.834000       15.9994           0
     22421 TIP3     34       TIP3     H1       HT       0.417000       1.00800           0
     22422 TIP3     34       TIP3     H2       HT       0.417000       1.00800           0
     22423 TIP3     35       TIP3     OH2      OT      -0.834000       15.9994           0
     22424 TIP3     35       TIP3     H1       HT       0.417000       1.00800           0
     22425 TIP3     35       TIP3     H2       HT       0.417000       1.00800           0
     22426 TIP3     36       TIP3     OH2      OT      -0.834000       15.9994           0
     22427 TIP3     36       TIP3     H1       HT       0.417000       1.00800           0
     22428 TIP3     36       TIP3     H2       HT       0.417000       1.00800           0
     22429 TIP3     37       TIP3     OH2      OT      -0.834000       15.9994           0
     22430 TIP3     37       TIP3     H1       HT       0.417000       1.00800           0
     22431 TIP3     37       TIP3     H2       HT       0.417000       1.00800           0
     22432 TIP3     38       TIP3     OH2      OT      -0.834000       15.9994           0
     22433 TIP3     38       TIP3     H1       HT       0.417000       1.00800           0
     22434 TIP3     38       TIP3     H2       HT       0.417000       1.00800           0
     22435 TIP3     39       TIP3     OH2      OT      -0.834000       15.9994           0
     22436 TIP3     39       TIP3     H1       HT       0.417000       1.00800           0
     22437 TIP3     39       TIP3     H2       HT       0.417000       1.00800           0
     22438 TIP3     40       TIP3     OH2      OT      -0.834000       15.9994           0
     22439 TIP3     40       TIP3     H1       HT       0.417000       1.00800           0
     22440 TIP3     40       TIP3     H2       HT       0.417000       1.00800           0
     22441 TIP3     41       TIP3     OH2      OT      -0.834000       15.9994           0
     22442 TIP3     41       TIP3     H1       HT       0.417000       1.00800           0
     22443 TIP3     41       TIP3     H2       HT       0.417000       1.00800           0
     22444 TIP3     42       TIP3     OH2      OT      -0.834000       15.9994           0
     22445 TIP3     42       TIP3     H1       HT       0.417000       1.00800           0
     22446 TIP3     42       TIP3     H2       HT       0.417000       1.00800           0
     22447 TIP3     43       TIP3     OH2      OT      -0.834000       15.9994           0
     22448 TIP3     43       TIP3     H1       HT       0.417000       1.00800           0
     22449 TIP3     43       TIP3     H2       HT       0.417000       1.00800           0
     22450 TIP3     44       TIP3     OH2      OT      -0.834000       15.9994           0
     22451 TIP3     44       TIP3     H1       HT       0.417000       1.00800           0
     22452 TIP3     44       TIP3     H2       HT       0.417000       1.00800           0
     22453 TIP3     45       TIP3     OH2      OT      -0.834000       15.9994           0
     22454 TIP3     45       TIP3     H1       HT       0.417000       1.00800           0
     22455 TIP3     45       TIP3     H2       HT       0.417000       1.00800           0
     22456 TIP3     46       TIP3     OH2      OT      -0.834000       15.9994           0
     22457 TIP3     46       TIP3     H1       HT       0.417000       1.00800           0
     22458 TIP3     46       TIP3     H2       HT       0.417000       1.00800           0
     22459 TIP3     47       TIP3     OH2      OT      -0.834000       15.9994           0
     22460 TIP3     47       TIP3     H1       HT       0.417000       1.00800           0
     22461 TIP3     47       TIP3     H2       HT       0.417000       1.00800           0
     22462 TIP3     48       TIP3     OH2      OT      -0.834000       15.9994           0
     22463 TIP3     48       TIP3     H1       HT       0.417000       1.00800           0
     22464 TIP3     48       TIP3     H2       HT       0.417000       1.00800           0
     22465 TIP3     49       TIP3     OH2      OT      -0.834000       15.9994           0
     22466 TIP3     49       TIP3     H1       HT       0.417000       1.00800           0
     22467 TIP3     49       TIP3     H2       HT       0.417000       1.00800           0
     22468 TIP3     50       TIP3     OH2      OT      -0.834000       15.9994           0
     22469 TIP3     50       TIP3     H1       HT       0.417000       1.00800           0
     22470 TIP3     50       TIP3     H2       HT       0.417000       1.00800           0
     22471 TIP3     51       TIP3     OH2      OT      -0.834000       15.9994           0
     22472 TIP3     51       TIP3     H1       HT       0.417000       1.00800           0
     22473 TIP3     51       TIP3     H2       HT       0.417000       1.00800           0
     22474 TIP3     52       TIP3     OH2      OT      -0.834000       15.9994           0
     22475 TIP3     52       TIP3     H1       HT       0.417000       1.00800           0
     22476 TIP3     52       TIP3     H2       HT       0.417000       1.00800           0
     22477 TIP3     53       TIP3     OH2      OT      -0.834000       15.9994           0
     22478 TIP3     53       TIP3     H1       HT       0.417000       1.00800           0
     22479 TIP3     53       TIP3     H2       HT       0.417000       1.00800           0
     22480 TIP3     54       TIP3     OH2      OT      -0.834000       15.9994           0
     22481 TIP3     54       TIP3     H1       HT       0.417000       1.00800           0
     22482 TIP3     54       TIP3     H2       HT       0.417000       1.00800           0
     22483 TIP3     55       TIP3     OH2      OT      -0.834000       15.9994           0
     22484 TIP3     55       TIP3     H1       HT       0.417000       1.00800           0
     22485 TIP3     55       TIP3     H2       HT       0.417000       1.00800           0
     22486 TIP3     56       TIP3     OH2      OT      -0.834000       15.9994           0
     22487 TIP3     56       TIP3     H1       HT       0.417000       1.00800           0
     22488 TIP3     56       TIP3     H2       HT       0.417000       1.00800           0
     22489 TIP3     57       TIP3     OH2      OT      -0.834000       15.9994           0
     22490 TIP3     57       TIP3     H1       HT       0.417000       1.00800           0
     22491 TIP3     57       TIP3     H2       HT       0.417000       1.00800           0
     22492 TIP3     58       TIP3     OH2      OT      -0.834000       15.9994           0
     22493 TIP3     58       TIP3     H1       HT       0.417000       1.00800           0
     22494 TIP3     58       TIP3     H2       HT       0.417000       1.00800           0
     22495 TIP3     59       TIP3     OH2      OT      -0.834000       15.9994           0
     22496 TIP3     59       TIP3     H1       HT       0.417000       1.00800           0
     22497 TIP3     59       TIP3     H2       HT       0.417000       1.00800           0
     22498 TIP3     60       TIP3     OH2      OT      -0.834000       15.9994           0
     22499 TIP3     60       TIP3     H1       HT       0.417000       1.00800           0
     22500 TIP3     60       TIP3     H2       HT       0.417000       1.00800           0
     22501 TIP3     61       TIP3     OH2      OT      -0.834000       15.9994           0
     22502 TIP3     61       TIP3     H1       HT       0.417000       1.00800           0
     22503 TIP3     61       TIP3     H2       HT       0.417000       1.00800           0
     22504 TIP3     62       TIP3     OH2      OT      -0.834000       15.9994           0
     22505 TIP3     62       TIP3     H1       HT       0.417000       1.00800           0
     22506 TIP3     62       TIP3     H2       HT       0.417000       1.00800           0
     22507 TIP3     63       TIP3     OH2      OT      -0.834000       15.9994           0
     22508 TIP3     63       TIP3     H1       HT       0.417000       1.00800           0
     22509 TIP3     63       TIP3     H2       HT       0.417000       1.00800           0
     22510 TIP3     64       TIP3     OH2      OT      -0.834000       15.9994           0
     22511 TIP3     64       TIP3     H1       HT       0.417000       1.00800           0
     22512 TIP3     64       TIP3     H2       HT       0.417000       1.00800           0
     22513 TIP3     65       TIP3     OH2      OT      -0.834000       15.9994           0
     22514 TIP3     65       TIP3     H1       HT       0.417000       1.00800           0
     22515 TIP3     65       TIP3     H2       HT       0.417000       1.00800           0
     22516 TIP3     66       TIP3     OH2      OT      -0.834000       15.9994           0
     22517 TIP3     66       TIP3     H1       HT       0.417000       1.00800           0
     22518 TIP3     66       TIP3     H2       HT       0.417000       1.00800           0
     22519 TIP3     67       TIP3     OH2      OT      -0.834000       15.9994           0
     22520 TIP3     67       TIP3     H1       HT       0.417000       1.00800           0
     22521 TIP3     67       TIP3     H2       HT       0.417000       1.00800           0
     22522 TIP3     68       TIP3     OH2      OT      -0.834000       15.9994           0
     22523 TIP3     68       TIP3     H1       HT       0.417000       1.00800           0
     22524 TIP3     68       TIP3     H2       HT       0.417000       1.00800           0
     22525 TIP3     69       TIP3     OH2      OT      -0.834000       15.9994           0
     22526 TIP3     69       TIP3     H1       HT       0.417000       1.00800           0
     22527 TIP3     69       TIP3     H2       HT       0.417000       1.00800           0
     22528 TIP3     70       TIP3     OH2      OT      -0.834000       15.9994           0
     22529 TIP3     70       TIP3     H1       HT       0.417000       1.00800           0
     22530 TIP3     70       TIP3     H2       HT       0.417000       1.00800           0
     22531 TIP3     71       TIP3     OH2      OT      -0.834000       15.9994           0
     22532 TIP3     71       TIP3     H1       HT       0.417000       1.00800           0
     22533 TIP3     71       TIP3     H2       HT       0.417000       1.00800           0
     22534 TIP3     72       TIP3     OH2      OT      -0.834000       15.9994           0
     22535 TIP3     72       TIP3     H1       HT       0.417000       1.00800           0
     22536 TIP3     72       TIP3     H2       HT       0.417000       1.00800           0
     22537 TIP3     73       TIP3     OH2      OT      -0.834000       15.9994           0
     22538 TIP3     73       TIP3     H1       HT       0.417000       1.00800           0
     22539 TIP3     73       TIP3     H2       HT       0.417000       1.00800           0
     22540 TIP3     74       TIP3     OH2      OT      -0.834000       15.9994           0
     22541 TIP3     74       TIP3     H1       HT       0.417000       1.00800           0
     22542 TIP3     74       TIP3     H2       HT       0.417000       1.00800           0
     22543 TIP3     75       TIP3     OH2      OT      -0.834000       15.9994           0
     22544 TIP3     75       TIP3     H1       HT       0.417000       1.00800           0
     22545 TIP3     75       TIP3     H2       HT       0.417000       1.00800           0
     22546 TIP3     76       TIP3     OH2      OT      -0.834000       15.9994           0
     22547 TIP3     76       TIP3     H1       HT       0.417000       1.00800           0
     22548 TIP3     76       TIP3     H2       HT       0.417000       1.00800           0
     22549 TIP3     77       TIP3     OH2      OT      -0.834000       15.9994           0
     22550 TIP3     77       TIP3     H1       HT       0.417000       1.00800           0
     22551 TIP3     77       TIP3     H2       HT       0.417000       1.00800           0
     22552 TIP3     78       TIP3     OH2      OT      -0.834000       15.9994           0
     22553 TIP3     78       TIP3     H1       HT       0.417000       1.00800           0
     22554 TIP3     78       TIP3     H2       HT       0.417000       1.00800           0
     22555 TIP3     79       TIP3     OH2      OT      -0.834000       15.9994           0
     22556 TIP3     79       TIP3     H1       HT       0.417000       1.00800           0
     22557 TIP3     79       TIP3     H2       HT       0.417000       1.00800           0
     22558 TIP3     80       TIP3     OH2      OT      -0.834000       15.9994           0
     22559 TIP3     80       TIP3     H1       HT       0.417000       1.00800           0
     22560 TIP3     80       TIP3     H2       HT       0.417000       1.00800           0
     22561 TIP3     81       TIP3     OH2      OT      -0.834000       15.9994           0
     22562 TIP3     81       TIP3     H1       HT       0.417000       1.00800           0
     22563 TIP3     81       TIP3     H2       HT       0.417000       1.00800           0
     22564 TIP3     82       TIP3     OH2      OT      -0.834000       15.9994           0
     22565 TIP3     82       TIP3     H1       HT       0.417000       1.00800           0
     22566 TIP3     82       TIP3     H2       HT       0.417000       1.00800           0
     22567 TIP3     83       TIP3     OH2      OT      -0.834000       15.9994           0
     22568 TIP3     83       TIP3     H1       HT       0.417000       1.00800           0
     22569 TIP3     83       TIP3     H2       HT       0.417000       1.00800           0
     22570 TIP3     84       TIP3     OH2      OT      -0.834000       15.9994           0
     22571 TIP3     84       TIP3     H1       HT       0.417000       1.00800           0
     22572 TIP3     84       TIP3     H2       HT       0.417000       1.00800           0
     22573 TIP3     85       TIP3     OH2      OT      -0.834000       15.9994           0
     22574 TIP3     85       TIP3     H1       HT       0.417000       1.00800           0
     22575 TIP3     85       TIP3     H2       HT       0.417000       1.00800           0
     22576 TIP3     86       TIP3     OH2      OT      -0.834000       15.9994           0
     22577 TIP3     86       TIP3     H1       HT       0.417000       1.00800           0
     22578 TIP3     86       TIP3     H2       HT       0.417000       1.00800           0
     22579 TIP3     87       TIP3     OH2      OT      -0.834000       15.9994           0
     22580 TIP3     87       TIP3     H1       HT       0.417000       1.00800           0
     22581 TIP3     87       TIP3     H2       HT       0.417000       1.00800           0
     22582 TIP3     88       TIP3     OH2      OT      -0.834000       15.9994           0
     22583 TIP3     88       TIP3     H1       HT       0.417000       1.00800           0
     22584 TIP3     88       TIP3     H2       HT       0.417000       1.00800           0
     22585 TIP3     89       TIP3     OH2      OT      -0.834000       15.9994           0
     22586 TIP3     89       TIP3     H1       HT       0.417000       1.00800           0
     22587 TIP3     89       TIP3     H2       HT       0.417000       1.00800           0

     22623 !NBOND: bonds
         1         3         1         2         3         4         1        47
        47        48        47        49        47        44        44        45
        44        46         1         5         5         6         5         7
         5         8         8        39        39        44        39        40
        40        41        40        42        40        43         8         9
         9        10         9        11        11        12        11        13
        11        14        14        15        14        37        37        38
        37        39        14        16        16        17        16        26
        26        31        31        32        31        33        31        34
        34        35        34        36        34        37        26        27
        27        28        27        29        27        30        16        18
        18        19        18        20        18        21        21        22
        21        23        21        24        24        25        24        26
        24        50        50        51        50        52        52        53
        52        54        52        55        50        56        56        57
        56        58        56        59        59        60        59        61
        59        62        62        63        62        64        62        65
        65        66        65        67        67        68        67        69
        67        70        65        71        71        72        71        73
        71        74        75        77        75        76        77        78
        75       121       121       122       121       123       121       118
       118       119       118       120        75        79        79        80
        79        81        79        82        82       113       113       118
       113       114       114       115       114       116       114       117
        82        83        83        84        83        85        85        86
        85        87        85        88        88        89        88       111
       111       112       111       113        88        90        90        91
        90       100       100       105       105       106       105       107
       105       108       108       109       108       110       108       111
       100       101       101       102       101       103       101       104
        90        92        92        93        92        94        92        95
        95        96        95        97        95        98        98        99
        98       100        98       124       124       125       124       126
       126       127       126       128       126       129       124       130
       130       131       130       132       130       133       133       134
       133       135       133       136       136       137       136       138
       136       139       139       140       139       141       141       142
       141       143       141       144       139       145       145       146
       145       147       145       148       149       153       149       157
       149       161       153       154       153       155       153       156
       157       158       157       159       157       160       161       162
       161       163       161       164       149       150       150       151
       150       152       150       165       165       166       165       167
       165       171       172       173       171       168       168       172
       168       169       168       170       173       174       173       175
       173       176       176       177       176       184       176       178
       184       185       184       186       184       187       178       179
       179       181       179       180       181       182       181       183
       181       193       193       194       193       195       193       196
       196       197       196       198       196       199       199       200
       199       201       201       202       201       203       203       204
       203       205       203       206       206       207       206       208
       208       209       208       210       210       211       210       212
       210       213       213       214       213       215       215       216
       215       217       217       218       217       219       217       220
       220       221       220       222       222       223       222       224
       224       225       224       226       224       227       227       228
       227       229       227       230       230       231       230       232
       230       233       233       234       233       235       233       236
       236       237       236       238       236       239       187       188
       188       190       188       189       190       191       190       192
       190       240       240       241       240       242       240       243
       243       244       243       245       243       246       246       247
       246       248       246       249       249       250       249       251
       249       252       252       253       252       254       252       255
       255       256       255       257       255       258       258       259
       258       260       258       261       261       262       261       263
       261       264       264       265       264       266       264       267
       267       268       267       269       267       270       270       271
       270       272       270       273       273       274       273       275
       273       276       276       277       276       278       276       279
       279       280       279       281       279       282       282       283
       282       284       282       285       285       286       285       287
       285       288       289       291       289       290       291       292
       289       335       335       336       335       337       335       332
       332       333       332       334       289       293       293       294
       293       295       293       296       296       327       327       332
       327       328       328       329       328       330       328       331
       296       297       297       298       297       299       299       300
       299       301       299       302       302       303       302       325
       325       326       325       327       302       304       304       305
       304       314       314       319       319       320       319       321
       319       322       322       323       322       324       322       325
       314       315       315       316       315       317       315       318
       304       306       306       307       306       308       306       309
       309       310       309       311       309       312       312       313
       312       314       312       338       338       339       338       340
       340       341       340       342       340       343       338       344
       344       345       344       346       344       347       347       348
       347       349       347       350       350       351       350       352
       350       353       353       354       353       355       355       356
       355       357       355       358       353       359       359       360
       359       361       359       362       363       364       363       368
       363       372       364       365       364       366       364       367
       368       369       368       370       368       371       372       373
       372       374       372       375       363       376       376       377
       376       378       376       379       379       380       379       381
       379       385       386       387       385       382       382       386
       382       383       382       384       387       388       387       389
       387       390       390       391       390       398       390       392
       398       399       398       400       398       401       392       393
       393       395       393       394       395       396       395       397
       395       407       407       408       407       409       407       410
       410       411       410       412       410       413       413       414
       413       415       413       416       416       417       416       418
       416       419       419       420       419       421       419       422
       422       423       422       424       422       425       425       426
       425       427       427       428       427       429       429       430
       429       431       429       432       432       433       432       434
       434       435       434       436       436       437       436       438
       436       439       439       440       439       441       439       442
       442       443       442       444       442       445       445       446
       445       447       445       448       448       449       448       450
       448       451       401       402       402       404       402       403
       404       405       404       406       404       452       452       453
       452       454       452       455       455       456       455       457
       455       458       458       459       458       460       458       461
       461       462       461       463       461       464       464       465
       464       466       464       467       467       468       467       469
       467       470       470       471       470       472       470       473
       473       474       473       475       473       476       476       477
       476       478       476       479       479       480       479       481
       479       482       482       483       482       484       482       485
       485       486       485       487       485       488       488       489
       488       490       488       491       491       492       491       493
       491       494       494       495       494       496       494       497
       497       498       497       499       497       500       501       503
       501       502       503       504       501       547       547       548
       547       549       547       544       544       545       544       546
       501       505       505       506       505       507       505       508
       508       539       539       544       539       540       540       541
       540       542       540       543       508       509       509       510
       509       511       511       512       511       513       511       514
       514       515       514       537       537       538       537       539
       514       516       516       517       516       526       526       531
       531       532       531       533       531       534       534       535
       534       536       534       537       526       527       527       528
       527       529       527       530       516       518       518       519
       518       520       518       521       521       522       521       523
       521       524       524       525       524       526       524       550
       550       551       550       552       552       553       552       554
       552       555       550       556       556       557       556       558
       556       559       559       560       559       561       559       562
       562       563       562       564       562       565       565       566
       565       567       567       568       567       569       567       570
       565       571       571       572       571       573       571       574
       575       576       575       577       575       578       575       579
       579       580       579       581       579       582       582       583
       582       584       582       588       590       589       588       585
       585       589       585       586       585       587       590       591
       590       592       590       593       593       594       593       601
       593       595       601       602       601       603       601       604
       595       596       596       598       596       597       598       599
       598       600       598       610       610       611       610       612
       610       613       613       614       613       615       613       616
       616       617       616       618       618       619       618       620
       620       621       620       622       620       623       623       624
       623       625       625       626       625       627       627       628
       627       629       627       630       630       631       630       632
       632       633       632       634       634       635       634       636
       634       637       637       638       637       639       639       640
       639       641       641       642       641       643       641       644
       644       645       644       646       644       647       647       648
       647       649       647       650       650       651       650       652
       650       653       653       654       653       655       653       656
       604       605       605       607       605       606       607       608
       607       609       607       657       657       658       657       659
       657       660       660       661       660       662       660       663
       663       664       663       665       663       666       666       667
       666       668       666       669       669       670       669       671
       669       672       672       673       672       674       672       675
       675       676       675       677       675       678       678       679
       678       680       678       681       681       682       681       683
       681       684       684       685       684       686       684       687
       687       688       687       689       687       690       690       691
       690       692       690       693       693       694       693       695
       693       696       696       697       696       698       696       699
       699       700       699       701       699       702       702       703
       702       704       702       705       706       707       706       708
       706       709       706       710       710       711       710       712
       710       713       713       714       713       715       713       719
       721       720       719       716       716       720       716       717
       716       718       721       722       721       723       721       724
       724       725       724       732       724       726       732       733
       732       734       732       735       726       727       727       729
       727       728       729       730       729       731       729       741
       741       742       741       743       741       744       744       745
       744       746       744       747       747       748       747       749
       747       750       750       751       750       752       750       753
       753       754       753       755       753       756       756       757
       756       758       756       759       759       760       759       761
       761       762       761       763       763       764       763       765
       763       766       766       767       766       768       766       769
       769       770       769       771       769       772       772       773
       772       774       772       775       775       776       775       777
       775       778       778       779       778       780       778       781
       781       782       781       783       781       784       784       785
       784       786       784       787       735       736       736       738
       736       737       738       739       738       740       738       788
       788       789       788       790       788       791       791       792
       791       793       791       794       794       795       794       796
       794       797       797       798       797       799       797       800
       800       801       800       802       800       803       803       804
       803       805       803       806       806       807       806       808
       806       809       809       810       809       811       809       812
       812       813       812       814       812       815       815       816
       815       817       815       818       818       819       818       820
       818       821       821       822       821       823       821       824
       824       825       824       826       824       827       827       828
       827       829       827       830       830       831       830       832
       830       833       833       834       833       835       833       836
       837       839       837       838       839       840       837       883
       883       884       883       885       883       880       880       881
       880       882       837       841       841       842       841       843
       841       844       844       875       875       880       875       876
       876       877       876       878       876       879       844       845
       845       846       845       847       847       848       847       849
       847       850       850       851       850       873       873       874
       873       875       850       852       852       853       852       862
       862       867       867       868       867       869       867       870
       870       871       870       872       870       873       862       863
       863       864       863       865       863       866       852       854
       854       855       854       856       854       857       857       858
       857       859       857       860       860       861       860       862
       860       886       886       887       886       888       888       889
       888       890       888       891       886       892       892       893
       892       894       892       895       895       896       895       897
       895       898       898       899       898       900       898       901
       901       902       901       903       903       904       903       905
       903       906       901       907       907       908       907       909
       907       910       911       913       911       912       913       914
       911       957       957       958       957       959       957       954
       954       955       954       956       911       915       915       916
       915       917       915       918       918       949       949       954
       949       950       950       951       950       952       950       953
       918       919       919       920       919       921       921       922
       921       923       921       924       924       925       924       947
       947       948       947       949       924       926       926       927
       926       936       936       941       941       942       941       943
       941       944       944       945       944       946       944       947
       936       937       937       938       937       939       937       940
       926       928       928       929       928       930       928       931
       931       932       931       933       931       934       934       935
       934       936       934       960       960       961       960       962
       962       963       962       964       962       965       960       966
       966       967       966       968       966       969       969       970
       969       971       969       972       972       973       972       974
       972       975       975       976       975       977       977       978
       977       979       977       980       975       981       981       982
       981       983       981       984       985       986       985       987
       985       988       985       989       989       990       989       991
       989       992       992       993       992       994       992       998
      1000       999       998       995       995       999       995       996
       995       997      1000      1001      1000      1002      1000      1003
      1003      1004      1003      1011      1003      1005      1011      1012
      1011      1013      1011      1014      1005      1006      1006      1008
      1006      1007      1008      1009      1008      1010      1008      1020
      1020      1021      1020      1022      1020      1023      1023      1024
      1023      1025      1023      1026      1026      1027      1026      1028
      1028      1029      1028      1030      1030      1031      1030      1032
      1030      1033      1033      1034      1033      1035      1035      1036
      1035      1037      1037      1038      1037      1039      1037      1040
      1040      1041      1040      1042      1042      1043      1042      1044
      1044      1045      1044      1046      1044      1047      1047      1048
      1047      1049      1049      1050      1049      1051      1051      1052
      1051      1053      1051      1054      1054      1055      1054      1056
      1054      1057      1057      1058      1057      1059      1057      1060
      1060      1061      1060      1062      1060      1063      1063      1064
      1063      1065      1063      1066      1014      1015      1015      1017
      1015      1016      1017      1018      1017      1019      1017      1067
      1067      1068      1067      1069      1067      1070      1070      1071
      1070      1072      1070      1073      1073      1074      1073      1075
      1073      1076      1076      1077      1076      1078      1076      1079
      1079      1080      1079      1081      1079      1082      1082      1083
      1082      1084      1082      1085      1085      1086      1085      1087
      1085      1088      1088      1089      1088      1090      1088      1091
      1091      1092      1091      1093      1091      1094      1094      1095
      1094      1096      1094      1097      1097      1098      1097      1099
      1097      1100      1100      1101      1100      1102      1100      1103
      1103      1104      1103      1105      1103      1106      1106      1107
      1106      1108      1106      1109      1109      1110      1109      1111
      1109      1112      1112      1113      1112      1114      1112      1115
      1116      1118      1116      1117      1118      1119      1116      1162
      1162      1163      1162      1164      1162      1159      1159      1160
      1159      1161      1116      1120      1120      1121      1120      1122
      1120      1123      1123      1154      1154      1159      1154      1155
      1155      1156      1155      1157      1155      1158      1123      1124
      1124      1125      1124      1126      1126      1127      1126      1128
      1126      1129      1129      1130      1129      1152      1152      1153
      1152      1154      1129      1131      1131      1132      1131      1141
      1141      1146      1146      1147      1146      1148      1146      1149
      1149      1150      1149      1151      1149      1152      1141      1142
      1142      1143      1142      1144      1142      1145      1131      1133
      1133      1134      1133      1135      1133      1136      1136      1137
      1136      1138      1136      1139      1139      1140      1139      1141
      1139      1165      1165      1166      1165      1167      1167      1168
      1167      1169      1167      1170      1165      1171      1171      1172
      1171      1173      1171      1174      1174      1175      1174      1176
      1174      1177      1177      1178      1177      1179      1177      1180
      1180      1181      1180      1182      1182      1183      1182      1184
      1182      1185      1180      1186      1186      1187      1186      1188
      1186      1189      1190      1191      1190      1195      1190      1199
      1191      1192      1191      1193      1191      1194      1195      1196
      1195      1197      1195      1198      1199      1200      1199      1201
      1199      1202      1190      1203      1203      1204      1203      1205
      1203      1206      1206      1207      1206      1208      1206      1212
      1213      1214      1212      1209      1209      1213      1209      1210
      1209      1211      1214      1215      1214      1216      1214      1217
      1217      1218      1217      1225      1217      1219      1225      1226
      1225      1227      1225      1228      1219      1220      1220      1222
      1220      1221      1222      1223      1222      1224      1222      1234
      1234      1235      1234      1236      1234      1237      1237      1238
      1237      1239      1237      1240      1240      1241      1240      1242
      1240      1243      1243      1244      1243      1245      1243      1246
      1246      1247      1246      1248      1246      1249      1249      1250
      1249      1251      1249      1252      1252      1253      1252      1254
      1254      1255      1254      1256      1256      1257      1256      1258
      1256      1259      1259      1260      1259      1261      1261      1262
      1261      1263      1263      1264      1263      1265      1263      1266
      1266      1267      1266      1268      1266      1269      1269      1270
      1269      1271      1269      1272      1272      1273      1272      1274
      1272      1275      1275      1276      1275      1277      1275      1278
      1228      1229      1229      1231      1229      1230      1231      1232
      1231      1233      1231      1279      1279      1280      1279      1281
      1279      1282      1282      1283      1282      1284      1282      1285
      1285      1286      1285      1287      1285      1288      1288      1289
      1288      1290      1288      1291      1291      1292      1291      1293
      1291      1294      1294      1295      1294      1296      1294      1297
      1297      1298      1297      1299      1297      1300      1300      1301
      1300      1302      1300      1303      1303      1304      1303      1305
      1303      1306      1306      1307      1306      1308      1306      1309
      1309      1310      1309      1311      1309      1312      1312      1313
      1312      1314      1312      1315      1315      1316      1315      1317
      1315      1318      1318      1319      1318      1320      1318      1321
      1321      1322      1321      1323      1321      1324      1324      1325
      1324      1326      1324      1327      1403      1404      1403      1405
      1403      1406      1403      1400      1400      1401      1400      1402
      1400      1397      1397      1398      1397      1399      1397      1394
      1394      1395      1394      1396      1394      1391      1391      1392
      1391      1393      1391      1388      1388      1389      1388      1390
      1388      1385      1385      1386      1385      1387      1385      1382
      1382      1383      1382      1384      1382      1379      1379      1380
      1379      1381      1379      1376      1376      1377      1376      1378
      1376      1373      1373      1374      1373      1375      1373      1370
      1370      1371      1370      1372      1370      1367      1367      1368
      1367      1369      1367      1365      1365      1366      1363      1364
      1363      1359      1359      1360      1359      1361      1361      1362
      1359      1357      1357      1358      1357      1352      1352      1353
      1352      1354      1352      1350      1350      1347      1351      1347
      1348      1347      1349      1347      1351      1344      1344      1345
      1344      1346      1344      1341      1341      1342      1341      1343
      1341      1328      1328      1337      1328      1333      1328      1329
      1337      1338      1337      1339      1337      1340      1333      1334
      1333      1335      1333      1336      1329      1330      1329      1331
      1329      1332      1357      1355      1355      1356      1355      1407
      1407      1409      1409      1410      1409      1411      1409      1412
      1412      1413      1412      1414      1412      1415      1415      1416
      1415      1417      1415      1418      1418      1419      1418      1420
      1418      1421      1421      1422      1421      1423      1421      1424
      1424      1425      1424      1426      1424      1427      1427      1428
      1427      1429      1427      1430      1430      1431      1432      1433
      1432      1434      1434      1435      1434      1436      1434      1437
      1437      1438      1437      1439      1437      1440      1440      1441
      1440      1442      1440      1443      1443      1444      1443      1445
      1443      1446      1446      1447      1446      1448      1446      1449
      1449      1450      1449      1451      1449      1452      1452      1453
      1452      1454      1452      1455      1455      1456      1455      1457
      1455      1458      1363      1365      1430      1432      1407      1408
      1459      1460      1459      1461      1459      1462      1459      1463
      1467      1465      1465      1463      1465      1466      1463      1464
      1463      1468      1476      1475      1468      1469      1468      1470
      1468      1474      1474      1471      1471      1475      1471      1472
      1471      1473      1476      1477      1476      1478      1476      1479
      1479      1480      1479      1487      1479      1481      1487      1488
      1487      1489      1487      1490      1481      1482      1482      1484
      1482      1483      1484      1485      1484      1486      1484      1496
      1496      1497      1496      1498      1496      1499      1499      1500
      1499      1501      1499      1502      1502      1503      1502      1504
      1504      1505      1504      1506      1506      1507      1506      1508
      1506      1509      1509      1510      1509      1511      1511      1512
      1511      1513      1513      1514      1513      1515      1513      1516
      1516      1517      1516      1518      1518      1519      1518      1520
      1520      1521      1520      1522      1520      1523      1523      1524
      1523      1525      1525      1526      1525      1527      1527      1528
      1527      1529      1527      1530      1530      1531      1530      1532
      1530      1533      1533      1534      1533      1535      1533      1536
      1536      1537      1536      1538      1536      1539      1539      1540
      1539      1541      1539      1542      1490      1491      1491      1493
      1491      1492      1493      1494      1493      1495      1493      1543
      1543      1544      1543      1545      1543      1546      1546      1547
      1546      1548      1546      1549      1549      1550      1549      1551
      1549      1552      1552      1553      1552      1554      1552      1555
      1555      1556      1555      1557      1555      1558      1558      1559
      1558      1560      1558      1561      1561      1562      1561      1563
      1561      1564      1564      1565      1564      1566      1564      1567
      1567      1568      1567      1569      1567      1570      1570      1571
      1570      1572      1570      1573      1573      1574      1573      1575
      1573      1576      1576      1577      1576      1578      1576      1579
      1579      1580      1579      1581      1579      1582      1582      1583
      1582      1584      1582      1585      1585      1586      1585      1587
      1585      1588      1588      1589      1588      1590      1588      1591
      1667      1668      1667      1669      1667      1670      1667      1664
      1664      1665      1664      1666      1664      1661      1661      1662
      1661      1663      1661      1658      1658      1659      1658      1660
      1658      1655      1655      1656      1655      1657      1655      1652
      1652      1653      1652      1654      1652      1649      1649      1650
      1649      1651      1649      1646      1646      1647      1646      1648
      1646      1643      1643      1644      1643      1645      1643      1640
      1640      1641      1640      1642      1640      1637      1637      1638
      1637      1639      1637      1634      1634      1635      1634      1636
      1634      1631      1631      1632      1631      1633      1631      1629
      1629      1630      1627      1628      1627      1623      1623      1624
      1623      1625      1625      1626      1623      1621      1621      1622
      1621      1616      1616      1617      1616      1618      1616      1614
      1614      1611      1615      1611      1612      1611      1613      1611
      1615      1608      1608      1609      1608      1610      1608      1605
      1605      1606      1605      1607      1605      1592      1592      1601
      1592      1597      1592      1593      1601      1602      1601      1603
      1601      1604      1597      1598      1597      1599      1597      1600
      1593      1594      1593      1595      1593      1596      1621      1619
      1619      1620      1619      1671      1671      1673      1673      1674
      1673      1675      1673      1676      1676      1677      1676      1678
      1676      1679      1679      1680      1679      1681      1679      1682
      1682      1683      1682      1684      1682      1685      1685      1686
      1685      1687      1685      1688      1688      1689      1688      1690
      1688      1691      1691      1692      1691      1693      1691      1694
      1694      1695      1696      1697      1696      1698      1698      1699
      1698      1700      1698      1701      1701      1702      1701      1703
      1701      1704      1704      1705      1704      1706      1704      1707
      1707      1708      1707      1709      1707      1710      1710      1711
      1710      1712      1710      1713      1713      1714      1713      1715
      1713      1716      1716      1717      1716      1718      1716      1719
      1719      1720      1719      1721      1719      1722      1627      1629
      1694      1696      1671      1672      1723      1725      1723      1724
      1725      1726      1723      1769      1769      1770      1769      1771
      1769      1766      1766      1767      1766      1768      1723      1727
      1727      1728      1727      1729      1727      1730      1730      1761
      1761      1766      1761      1762      1762      1763      1762      1764
      1762      1765      1730      1731      1731      1732      1731      1733
      1733      1734      1733      1735      1733      1736      1736      1737
      1736      1759      1759      1760      1759      1761      1736      1738
      1738      1739      1738      1748      1748      1753      1753      1754
      1753      1755      1753      1756      1756      1757      1756      1758
      1756      1759      1748      1749      1749      1750      1749      1751
      1749      1752      1738      1740      1740      1741      1740      1742
      1740      1743      1743      1744      1743      1745      1743      1746
      1746      1747      1746      1748      1746      1772      1772      1773
      1772      1774      1774      1775      1774      1776      1774      1777
      1772      1778      1778      1779      1778      1780      1778      1781
      1781      1782      1781      1783      1781      1784      1784      1785
      1784      1786      1784      1787      1787      1788      1787      1789
      1789      1790      1789      1791      1789      1792      1787      1793
      1793      1794      1793      1795      1793      1796      1797      1799
      1797      1798      1799      1800      1797      1843      1843      1844
      1843      1845      1843      1840      1840      1841      1840      1842
      1797      1801      1801      1802      1801      1803      1801      1804
      1804      1835      1835      1840      1835      1836      1836      1837
      1836      1838      1836      1839      1804      1805      1805      1806
      1805      1807      1807      1808      1807      1809      1807      1810
      1810      1811      1810      1833      1833      1834      1833      1835
      1810      1812      1812      1813      1812      1822      1822      1827
      1827      1828      1827      1829      1827      1830      1830      1831
      1830      1832      1830      1833      1822      1823      1823      1824
      1823      1825      1823      1826      1812      1814      1814      1815
      1814      1816      1814      1817      1817      1818      1817      1819
      1817      1820      1820      1821      1820      1822      1820      1846
      1846      1847      1846      1848      1848      1849      1848      1850
      1848      1851      1846      1852      1852      1853      1852      1854
      1852      1855      1855      1856      1855      1857      1855      1858
      1858      1859      1858      1860      1858      1861      1861      1862
      1861      1863      1863      1864      1863      1865      1863      1866
      1861      1867      1867      1868      1867      1869      1867      1870
      1871      1875      1871      1879      1871      1883      1875      1876
      1875      1877      1875      1878      1879      1880      1879      1881
      1879      1882      1883      1884      1883      1885      1883      1886
      1871      1872      1872      1873      1872      1874      1872      1887
      1887      1888      1887      1889      1887      1893      1894      1895
      1893      1890      1890      1894      1890      1891      1890      1892
      1895      1896      1895      1897      1895      1898      1898      1899
      1898      1906      1898      1900      1906      1907      1906      1908
      1906      1909      1900      1901      1901      1903      1901      1902
      1903      1904      1903      1905      1903      1915      1915      1916
      1915      1917      1915      1918      1918      1919      1918      1920
      1918      1921      1921      1922      1921      1923      1923      1924
      1923      1925      1925      1926      1925      1927      1925      1928
      1928      1929      1928      1930      1930      1931      1930      1932
      1932      1933      1932      1934      1932      1935      1935      1936
      1935      1937      1937      1938      1937      1939      1939      1940
      1939      1941      1939      1942      1942      1943      1942      1944
      1944      1945      1944      1946      1946      1947      1946      1948
      1946      1949      1949      1950      1949      1951      1949      1952
      1952      1953      1952      1954      1952      1955      1955      1956
      1955      1957      1955      1958      1958      1959      1958      1960
      1958      1961      1909      1910      1910      1912      1910      1911
      1912      1913      1912      1914      1912      1962      1962      1963
      1962      1964      1962      1965      1965      1966      1965      1967
      1965      1968      1968      1969      1968      1970      1968      1971
      1971      1972      1971      1973      1971      1974      1974      1975
      1974      1976      1974      1977      1977      1978      1977      1979
      1977      1980      1980      1981      1980      1982      1980      1983
      1983      1984      1983      1985      1983      1986      1986      1987
      1986      1988      1986      1989      1989      1990      1989      1991
      1989      1992      1992      1993      1992      1994      1992      1995
      1995      1996      1995      1997      1995      1998      1998      1999
      1998      2000      1998      2001      2001      2002      2001      2003
      2001      2004      2004      2005      2004      2006      2004      2007
      2007      2008      2007      2009      2007      2010      2086      2087
      2086      2088      2086      2089      2086      2083      2083      2084
      2083      2085      2083      2080      2080      2081      2080      2082
      2080      2077      2077      2078      2077      2079      2077      2074
      2074      2075      2074      2076      2074      2071      2071      2072
      2071      2073      2071      2068      2068      2069      2068      2070
      2068      2065      2065      2066      2065      2067      2065      2062
      2062      2063      2062      2064      2062      2059      2059      2060
      2059      2061      2059      2056      2056      2057      2056      2058
      2056      2053      2053      2054      2053      2055      2053      2050
      2050      2051      2050      2052      2050      2048      2048      2049
      2046      2047      2046      2042      2042      2043      2042      2044
      2044      2045      2042      2040      2040      2041      2040      2035
      2035      2036      2035      2037      2035      2033      2033      2030
      2034      2030      2031      2030      2032      2030      2034      2027
      2027      2028      2027      2029      2027      2024      2024      2025
      2024      2026      2024      2011      2011      2020      2011      2016
      2011      2012      2020      2021      2020      2022      2020      2023
      2016      2017      2016      2018      2016      2019      2012      2013
      2012      2014      2012      2015      2040      2038      2038      2039
      2038      2090      2090      2092      2092      2093      2092      2094
      2092      2095      2095      2096      2095      2097      2095      2098
      2098      2099      2098      2100      2098      2101      2101      2102
      2101      2103      2101      2104      2104      2105      2104      2106
      2104      2107      2107      2108      2107      2109      2107      2110
      2110      2111      2110      2112      2110      2113      2113      2114
      2115      2116      2115      2117      2117      2118      2117      2119
      2117      2120      2120      2121      2120      2122      2120      2123
      2123      2124      2123      2125      2123      2126      2126      2127
      2126      2128      2126      2129      2129      2130      2129      2131
      2129      2132      2132      2133      2132      2134      2132      2135
      2135      2136      2135      2137      2135      2138      2138      2139
      2138      2140      2138      2141      2046      2048      2113      2115
      2090      2091      2142      2143      2142      2144      2142      2145
      2142      2146      2146      2147      2146      2148      2146      2149
      2149      2150      2149      2151      2149      2155      2157      2156
      2155      2152      2152      2156      2152      2153      2152      2154
      2157      2158      2157      2159      2157      2160      2160      2161
      2160      2168      2160      2162      2168      2169      2168      2170
      2168      2171      2162      2163      2163      2165      2163      2164
      2165      2166      2165      2167      2165      2177      2177      2178
      2177      2179      2177      2180      2180      2181      2180      2182
      2180      2183      2183      2184      2183      2185      2185      2186
      2185      2187      2187      2188      2187      2189      2187      2190
      2190      2191      2190      2192      2192      2193      2192      2194
      2194      2195      2194      2196      2194      2197      2197      2198
      2197      2199      2199      2200      2199      2201      2201      2202
      2201      2203      2201      2204      2204      2205      2204      2206
      2206      2207      2206      2208      2208      2209      2208      2210
      2208      2211      2211      2212      2211      2213      2211      2214
      2214      2215      2214      2216      2214      2217      2217      2218
      2217      2219      2217      2220      2220      2221      2220      2222
      2220      2223      2171      2172      2172      2174      2172      2173
      2174      2175      2174      2176      2174      2224      2224      2225
      2224      2226      2224      2227      2227      2228      2227      2229
      2227      2230      2230      2231      2230      2232      2230      2233
      2233      2234      2233      2235      2233      2236      2236      2237
      2236      2238      2236      2239      2239      2240      2239      2241
      2239      2242      2242      2243      2242      2244      2242      2245
      2245      2246      2245      2247      2245      2248      2248      2249
      2248      2250      2248      2251      2251      2252      2251      2253
      2251      2254      2254      2255      2254      2256      2254      2257
      2257      2258      2257      2259      2257      2260      2260      2261
      2260      2262      2260      2263      2263      2264      2263      2265
      2263      2266      2266      2267      2266      2268      2266      2269
      2269      2270      2269      2271      2269      2272      2273      2275
      2273      2274      2275      2276      2273      2319      2319      2320
      2319      2321      2319      2316      2316      2317      2316      2318
      2273      2277      2277      2278      2277      2279      2277      2280
      2280      2311      2311      2316      2311      2312      2312      2313
      2312      2314      2312      2315      2280      2281      2281      2282
      2281      2283      2283      2284      2283      2285      2283      2286
      2286      2287      2286      2309      2309      2310      2309      2311
      2286      2288      2288      2289      2288      2298      2298      2303
      2303      2304      2303      2305      2303      2306      2306      2307
      2306      2308      2306      2309      2298      2299      2299      2300
      2299      2301      2299      2302      2288      2290      2290      2291
      2290      2292      2290      2293      2293      2294      2293      2295
      2293      2296      2296      2297      2296      2298      2296      2322
      2322      2323      2322      2324      2324      2325      2324      2326
      2324      2327      2322      2328      2328      2329      2328      2330
      2328      2331      2331      2332      2331      2333      2331      2334
      2334      2335      2334      2336      2334      2337      2337      2338
      2337      2339      2339      2340      2339      2341      2339      2342
      2337      2343      2343      2344      2343      2345      2343      2346
      2347      2349      2347      2348      2349      2350      2347      2393
      2393      2394      2393      2395      2393      2390      2390      2391
      2390      2392      2347      2351      2351      2352      2351      2353
      2351      2354      2354      2385      2385      2390      2385      2386
      2386      2387      2386      2388      2386      2389      2354      2355
      2355      2356      2355      2357      2357      2358      2357      2359
      2357      2360      2360      2361      2360      2383      2383      2384
      2383      2385      2360      2362      2362      2363      2362      2372
      2372      2377      2377      2378      2377      2379      2377      2380
      2380      2381      2380      2382      2380      2383      2372      2373
      2373      2374      2373      2375      2373      2376      2362      2364
      2364      2365      2364      2366      2364      2367      2367      2368
      2367      2369      2367      2370      2370      2371      2370      2372
      2370      2396      2396      2397      2396      2398      2398      2399
      2398      2400      2398      2401      2396      2402      2402      2403
      2402      2404      2402      2405      2405      2406      2405      2407
      2405      2408      2408      2409      2408      2410      2408      2411
      2411      2412      2411      2413      2413      2414      2413      2415
      2413      2416      2411      2417      2417      2418      2417      2419
      2417      2420      2421      2422      2421      2423      2421      2424
      2421      2425      2425      2426      2425      2427      2425      2428
      2428      2429      2428      2430      2428      2434      2436      2435
      2434      2431      2431      2435      2431      2432      2431      2433
      2436      2437      2436      2438      2436      2439      2439      2440
      2439      2447      2439      2441      2447      2448      2447      2449
      2447      2450      2441      2442      2442      2444      2442      2443
      2444      2445      2444      2446      2444      2456      2456      2457
      2456      2458      2456      2459      2459      2460      2459      2461
      2459      2462      2462      2463      2462      2464      2464      2465
      2464      2466      2466      2467      2466      2468      2466      2469
      2469      2470      2469      2471      2471      2472      2471      2473
      2473      2474      2473      2475      2473      2476      2476      2477
      2476      2478      2478      2479      2478      2480      2480      2481
      2480      2482      2480      2483      2483      2484      2483      2485
      2485      2486      2485      2487      2487      2488      2487      2489
      2487      2490      2490      2491      2490      2492      2490      2493
      2493      2494      2493      2495      2493      2496      2496      2497
      2496      2498      2496      2499      2499      2500      2499      2501
      2499      2502      2450      2451      2451      2453      2451      2452
      2453      2454      2453      2455      2453      2503      2503      2504
      2503      2505      2503      2506      2506      2507      2506      2508
      2506      2509      2509      2510      2509      2511      2509      2512
      2512      2513      2512      2514      2512      2515      2515      2516
      2515      2517      2515      2518      2518      2519      2518      2520
      2518      2521      2521      2522      2521      2523      2521      2524
      2524      2525      2524      2526      2524      2527      2527      2528
      2527      2529      2527      2530      2530      2531      2530      2532
      2530      2533      2533      2534      2533      2535      2533      2536
      2536      2537      2536      2538      2536      2539      2539      2540
      2539      2541      2539      2542      2542      2543      2542      2544
      2542      2545      2545      2546      2545      2547      2545      2548
      2548      2549      2548      2550      2548      2551      2552      2556
      2552      2560      2552      2564      2556      2557      2556      2558
      2556      2559      2560      2561      2560      2562      2560      2563
      2564      2565      2564      2566      2564      2567      2552      2553
      2553      2554      2553      2555      2553      2568      2568      2569
      2568      2570      2568      2574      2575      2576      2574      2571
      2571      2575      2571      2572      2571      2573      2576      2577
      2576      2578      2576      2579      2579      2580      2579      2587
      2579      2581      2587      2588      2587      2589      2587      2590
      2581      2582      2582      2584      2582      2583      2584      2585
      2584      2586      2584      2596      2596      2597      2596      2598
      2596      2599      2599      2600      2599      2601      2599      2602
      2602      2603      2602      2604      2602      2605      2605      2606
      2605      2607      2605      2608      2608      2609      2608      2610
      2608      2611      2611      2612      2611      2613      2611      2614
      2614      2615      2614      2616      2616      2617      2616      2618
      2618      2619      2618      2620      2618      2621      2621      2622
      2621      2623      2621      2624      2624      2625      2624      2626
      2624      2627      2627      2628      2627      2629      2627      2630
      2630      2631      2630      2632      2630      2633      2633      2634
      2633      2635      2633      2636      2636      2637      2636      2638
      2636      2639      2639      2640      2639      2641      2639      2642
      2590      2591      2591      2593      2591      2592      2593      2594
      2593      2595      2593      2643      2643      2644      2643      2645
      2643      2646      2646      2647      2646      2648      2646      2649
      2649      2650      2649      2651      2649      2652      2652      2653
      2652      2654      2652      2655      2655      2656      2655      2657
      2655      2658      2658      2659      2658      2660      2658      2661
      2661      2662      2661      2663      2661      2664      2664      2665
      2664      2666      2664      2667      2667      2668      2667      2669
      2667      2670      2670      2671      2670      2672      2670      2673
      2673      2674      2673      2675      2673      2676      2676      2677
      2676      2678      2676      2679      2679      2680      2679      2681
      2679      2682      2682      2683      2682      2684      2682      2685
      2686      2687      2686      2688      2686      2689      2686      2690
      2694      2692      2692      2690      2692      2693      2690      2691
      2690      2695      2703      2702      2695      2696      2695      2697
      2695      2701      2701      2698      2698      2702      2698      2699
      2698      2700      2703      2704      2703      2705      2703      2706
      2706      2707      2706      2714      2706      2708      2714      2715
      2714      2716      2714      2717      2708      2709      2709      2711
      2709      2710      2711      2712      2711      2713      2711      2723
      2723      2724      2723      2725      2723      2726      2726      2727
      2726      2728      2726      2729      2729      2730      2729      2731
      2731      2732      2731      2733      2733      2734      2733      2735
      2733      2736      2736      2737      2736      2738      2738      2739
      2738      2740      2740      2741      2740      2742      2740      2743
      2743      2744      2743      2745      2745      2746      2745      2747
      2747      2748      2747      2749      2747      2750      2750      2751
      2750      2752      2752      2753      2752      2754      2754      2755
      2754      2756      2754      2757      2757      2758      2757      2759
      2757      2760      2760      2761      2760      2762      2760      2763
      2763      2764      2763      2765      2763      2766      2766      2767
      2766      2768      2766      2769      2717      2718      2718      2720
      2718      2719      2720      2721      2720      2722      2720      2770
      2770      2771      2770      2772      2770      2773      2773      2774
      2773      2775      2773      2776      2776      2777      2776      2778
      2776      2779      2779      2780      2779      2781      2779      2782
      2782      2783      2782      2784      2782      2785      2785      2786
      2785      2787      2785      2788      2788      2789      2788      2790
      2788      2791      2791      2792      2791      2793      2791      2794
      2794      2795      2794      2796      2794      2797      2797      2798
      2797      2799      2797      2800      2800      2801      2800      2802
      2800      2803      2803      2804      2803      2805      2803      2806
      2806      2807      2806      2808      2806      2809      2809      2810
      2809      2811      2809      2812      2812      2813      2812      2814
      2812      2815      2815      2816      2815      2817      2815      2818
      2819      2821      2819      2820      2821      2822      2819      2865
      2865      2866      2865      2867      2865      2862      2862      2863
      2862      2864      2819      2823      2823      2824      2823      2825
      2823      2826      2826      2857      2857      2862      2857      2858
      2858      2859      2858      2860      2858      2861      2826      2827
      2827      2828      2827      2829      2829      2830      2829      2831
      2829      2832      2832      2833      2832      2855      2855      2856
      2855      2857      2832      2834      2834      2835      2834      2844
      2844      2849      2849      2850      2849      2851      2849      2852
      2852      2853      2852      2854      2852      2855      2844      2845
      2845      2846      2845      2847      2845      2848      2834      2836
      2836      2837      2836      2838      2836      2839      2839      2840
      2839      2841      2839      2842      2842      2843      2842      2844
      2842      2868      2868      2869      2868      2870      2870      2871
      2870      2872      2870      2873      2868      2874      2874      2875
      2874      2876      2874      2877      2877      2878      2877      2879
      2877      2880      2880      2881      2880      2882      2880      2883
      2883      2884      2883      2885      2885      2886      2885      2887
      2885      2888      2883      2889      2889      2890      2889      2891
      2889      2892      2893      2894      2893      2895      2893      2896
      2893      2897      2897      2898      2897      2899      2897      2900
      2900      2901      2900      2902      2900      2906      2908      2907
      2906      2903      2903      2907      2903      2904      2903      2905
      2908      2909      2908      2910      2908      2911      2911      2912
      2911      2919      2911      2913      2919      2920      2919      2921
      2919      2922      2913      2914      2914      2916      2914      2915
      2916      2917      2916      2918      2916      2928      2928      2929
      2928      2930      2928      2931      2931      2932      2931      2933
      2931      2934      2934      2935      2934      2936      2936      2937
      2936      2938      2938      2939      2938      2940      2938      2941
      2941      2942      2941      2943      2943      2944      2943      2945
      2945      2946      2945      2947      2945      2948      2948      2949
      2948      2950      2950      2951      2950      2952      2952      2953
      2952      2954      2952      2955      2955      2956      2955      2957
      2957      2958      2957      2959      2959      2960      2959      2961
      2959      2962      2962      2963      2962      2964      2962      2965
      2965      2966      2965      2967      2965      2968      2968      2969
      2968      2970      2968      2971      2971      2972      2971      2973
      2971      2974      2922      2923      2923      2925      2923      2924
      2925      2926      2925      2927      2925      2975      2975      2976
      2975      2977      2975      2978      2978      2979      2978      2980
      2978      2981      2981      2982      2981      2983      2981      2984
      2984      2985      2984      2986      2984      2987      2987      2988
      2987      2989      2987      2990      2990      2991      2990      2992
      2990      2993      2993      2994      2993      2995      2993      2996
      2996      2997      2996      2998      2996      2999      2999      3000
      2999      3001      2999      3002      3002      3003      3002      3004
      3002      3005      3005      3006      3005      3007      3005      3008
      3008      3009      3008      3010      3008      3011      3011      3012
      3011      3013      3011      3014      3014      3015      3014      3016
      3014      3017      3017      3018      3017      3019      3017      3020
      3020      3021      3020      3022      3020      3023      3024      3028
      3024      3032      3024      3036      3028      3029      3028      3030
      3028      3031      3032      3033      3032      3034      3032      3035
      3036      3037      3036      3038      3036      3039      3024      3025
      3025      3026      3025      3027      3025      3040      3040      3041
      3040      3042      3040      3046      3047      3048      3046      3043
      3043      3047      3043      3044      3043      3045      3048      3049
      3048      3050      3048      3051      3051      3052      3051      3059
      3051      3053      3059      3060      3059      3061      3059      3062
      3053      3054      3054      3056      3054      3055      3056      3057
      3056      3058      3056      3068      3068      3069      3068      3070
      3068      3071      3071      3072      3071      3073      3071      3074
      3074      3075      3074      3076      3076      3077      3076      3078
      3078      3079      3078      3080      3078      3081      3081      3082
      3081      3083      3083      3084      3083      3085      3085      3086
      3085      3087      3085      3088      3088      3089      3088      3090
      3090      3091      3090      3092      3092      3093      3092      3094
      3092      3095      3095      3096      3095      3097      3097      3098
      3097      3099      3099      3100      3099      3101      3099      3102
      3102      3103      3102      3104      3102      3105      3105      3106
      3105      3107      3105      3108      3108      3109      3108      3110
      3108      3111      3111      3112      3111      3113      3111      3114
      3062      3063      3063      3065      3063      3064      3065      3066
      3065      3067      3065      3115      3115      3116      3115      3117
      3115      3118      3118      3119      3118      3120      3118      3121
      3121      3122      3121      3123      3121      3124      3124      3125
      3124      3126      3124      3127      3127      3128      3127      3129
      3127      3130      3130      3131      3130      3132      3130      3133
      3133      3134      3133      3135      3133      3136      3136      3137
      3136      3138      3136      3139      3139      3140      3139      3141
      3139      3142      3142      3143      3142      3144      3142      3145
      3145      3146      3145      3147      3145      3148      3148      3149
      3148      3150      3148      3151      3151      3152      3151      3153
      3151      3154      3154      3155      3154      3156      3154      3157
      3157      3158      3157      3159      3157      3160      3160      3161
      3160      3162      3160      3163      3164      3165      3164      3169
      3164      3173      3165      3166      3165      3167      3165      3168
      3169      3170      3169      3171      3169      3172      3173      3174
      3173      3175      3173      3176      3164      3177      3177      3178
      3177      3179      3177      3180      3180      3181      3180      3182
      3180      3186      3187      3188      3186      3183      3183      3187
      3183      3184      3183      3185      3188      3189      3188      3190
      3188      3191      3191      3192      3191      3199      3191      3193
      3199      3200      3199      3201      3199      3202      3193      3194
      3194      3196      3194      3195      3196      3197      3196      3198
      3196      3208      3208      3209      3208      3210      3208      3211
      3211      3212      3211      3213      3211      3214      3214      3215
      3214      3216      3214      3217      3217      3218      3217      3219
      3217      3220      3220      3221      3220      3222      3220      3223
      3223      3224      3223      3225      3223      3226      3226      3227
      3226      3228      3228      3229      3228      3230      3230      3231
      3230      3232      3230      3233      3233      3234      3233      3235
      3235      3236      3235      3237      3237      3238      3237      3239
      3237      3240      3240      3241      3240      3242      3240      3243
      3243      3244      3243      3245      3243      3246      3246      3247
      3246      3248      3246      3249      3249      3250      3249      3251
      3249      3252      3202      3203      3203      3205      3203      3204
      3205      3206      3205      3207      3205      3253      3253      3254
      3253      3255      3253      3256      3256      3257      3256      3258
      3256      3259      3259      3260      3259      3261      3259      3262
      3262      3263      3262      3264      3262      3265      3265      3266
      3265      3267      3265      3268      3268      3269      3268      3270
      3268      3271      3271      3272      3271      3273      3271      3274
      3274      3275      3274      3276      3274      3277      3277      3278
      3277      3279      3277      3280      3280      3281      3280      3282
      3280      3283      3283      3284      3283      3285      3283      3286
      3286      3287      3286      3288      3286      3289      3289      3290
      3289      3291      3289      3292      3292      3293      3292      3294
      3292      3295      3295      3296      3295      3297      3295      3298
      3298      3299      3298      3300      3298      3301      3377      3378
      3377      3379      3377      3380      3377      3374      3374      3375
      3374      3376      3374      3371      3371      3372      3371      3373
      3371      3368      3368      3369      3368      3370      3368      3365
      3365      3366      3365      3367      3365      3362      3362      3363
      3362      3364      3362      3359      3359      3360      3359      3361
      3359      3356      3356      3357      3356      3358      3356      3353
      3353      3354      3353      3355      3353      3350      3350      3351
      3350      3352      3350      3347      3347      3348      3347      3349
      3347      3344      3344      3345      3344      3346      3344      3341
      3341      3342      3341      3343      3341      3339      3339      3340
      3337      3338      3337      3333      3333      3334      3333      3335
      3335      3336      3333      3331      3331      3332      3331      3326
      3326      3327      3326      3328      3326      3324      3324      3321
      3325      3321      3322      3321      3323      3321      3325      3318
      3318      3319      3318      3320      3318      3315      3315      3316
      3315      3317      3315      3302      3302      3311      3302      3307
      3302      3303      3311      3312      3311      3313      3311      3314
      3307      3308      3307      3309      3307      3310      3303      3304
      3303      3305      3303      3306      3331      3329      3329      3330
      3329      3381      3381      3383      3383      3384      3383      3385
      3383      3386      3386      3387      3386      3388      3386      3389
      3389      3390      3389      3391      3389      3392      3392      3393
      3392      3394      3392      3395      3395      3396      3395      3397
      3395      3398      3398      3399      3398      3400      3398      3401
      3401      3402      3401      3403      3401      3404      3404      3405
      3406      3407      3406      3408      3408      3409      3408      3410
      3408      3411      3411      3412      3411      3413      3411      3414
      3414      3415      3414      3416      3414      3417      3417      3418
      3417      3419      3417      3420      3420      3421      3420      3422
      3420      3423      3423      3424      3423      3425      3423      3426
      3426      3427      3426      3428      3426      3429      3429      3430
      3429      3431      3429      3432      3337      3339      3404      3406
      3381      3382      3433      3434      3433      3435      3433      3436
      3433      3437      3437      3438      3437      3439      3437      3440
      3440      3441      3440      3442      3440      3446      3448      3447
      3446      3443      3443      3447      3443      3444      3443      3445
      3448      3449      3448      3450      3448      3451      3451      3452
      3451      3459      3451      3453      3459      3460      3459      3461
      3459      3462      3453      3454      3454      3456      3454      3455
      3456      3457      3456      3458      3456      3468      3468      3469
      3468      3470      3468      3471      3471      3472      3471      3473
      3471      3474      3474      3475      3474      3476      3476      3477
      3476      3478      3478      3479      3478      3480      3478      3481
      3481      3482      3481      3483      3483      3484      3483      3485
      3485      3486      3485      3487      3485      3488      3488      3489
      3488      3490      3490      3491      3490      3492      3492      3493
      3492      3494      3492      3495      3495      3496      3495      3497
      3497      3498      3497      3499      3499      3500      3499      3501
      3499      3502      3502      3503      3502      3504      3502      3505
      3505      3506      3505      3507      3505      3508      3508      3509
      3508      3510      3508      3511      3511      3512      3511      3513
      3511      3514      3462      3463      3463      3465      3463      3464
      3465      3466      3465      3467      3465      3515      3515      3516
      3515      3517      3515      3518      3518      3519      3518      3520
      3518      3521      3521      3522      3521      3523      3521      3524
      3524      3525      3524      3526      3524      3527      3527      3528
      3527      3529      3527      3530      3530      3531      3530      3532
      3530      3533      3533      3534      3533      3535      3533      3536
      3536      3537      3536      3538      3536      3539      3539      3540
      3539      3541      3539      3542      3542      3543      3542      3544
      3542      3545      3545      3546      3545      3547      3545      3548
      3548      3549      3548      3550      3548      3551      3551      3552
      3551      3553      3551      3554      3554      3555      3554      3556
      3554      3557      3557      3558      3557      3559      3557      3560
      3560      3561      3560      3562      3560      3563      3639      3640
      3639      3641      3639      3642      3639      3636      3636      3637
      3636      3638      3636      3633      3633      3634      3633      3635
      3633      3630      3630      3631      3630      3632      3630      3627
      3627      3628      3627      3629      3627      3624      3624      3625
      3624      3626      3624      3621      3621      3622      3621      3623
      3621      3618      3618      3619      3618      3620      3618      3615
      3615      3616      3615      3617      3615      3612      3612      3613
      3612      3614      3612      3609      3609      3610      3609      3611
      3609      3606      3606      3607      3606      3608      3606      3603
      3603      3604      3603      3605      3603      3601      3601      3602
      3599      3600      3599      3595      3595      3596      3595      3597
      3597      3598      3595      3593      3593      3594      3593      3588
      3588      3589      3588      3590      3588      3586      3586      3583
      3587      3583      3584      3583      3585      3583      3587      3580
      3580      3581      3580      3582      3580      3577      3577      3578
      3577      3579      3577      3564      3564      3573      3564      3569
      3564      3565      3573      3574      3573      3575      3573      3576
      3569      3570      3569      3571      3569      3572      3565      3566
      3565      3567      3565      3568      3593      3591      3591      3592
      3591      3643      3643      3645      3645      3646      3645      3647
      3645      3648      3648      3649      3648      3650      3648      3651
      3651      3652      3651      3653      3651      3654      3654      3655
      3654      3656      3654      3657      3657      3658      3657      3659
      3657      3660      3660      3661      3660      3662      3660      3663
      3663      3664      3663      3665      3663      3666      3666      3667
      3668      3669      3668      3670      3670      3671      3670      3672
      3670      3673      3673      3674      3673      3675      3673      3676
      3676      3677      3676      3678      3676      3679      3679      3680
      3679      3681      3679      3682      3682      3683      3682      3684
      3682      3685      3685      3686      3685      3687      3685      3688
      3688      3689      3688      3690      3688      3691      3691      3692
      3691      3693      3691      3694      3599      3601      3666      3668
      3643      3644      3770      3771      3770      3772      3770      3773
      3770      3767      3767      3768      3767      3769      3767      3764
      3764      3765      3764      3766      3764      3761      3761      3762
      3761      3763      3761      3758      3758      3759      3758      3760
      3758      3755      3755      3756      3755      3757      3755      3752
      3752      3753      3752      3754      3752      3749      3749      3750
      3749      3751      3749      3746      3746      3747      3746      3748
      3746      3743      3743      3744      3743      3745      3743      3740
      3740      3741      3740      3742      3740      3737      3737      3738
      3737      3739      3737      3734      3734      3735      3734      3736
      3734      3732      3732      3733      3730      3731      3730      3726
      3726      3727      3726      3728      3728      3729      3726      3724
      3724      3725      3724      3719      3719      3720      3719      3721
      3719      3717      3717      3714      3718      3714      3715      3714
      3716      3714      3718      3711      3711      3712      3711      3713
      3711      3708      3708      3709      3708      3710      3708      3695
      3695      3704      3695      3700      3695      3696      3704      3705
      3704      3706      3704      3707      3700      3701      3700      3702
      3700      3703      3696      3697      3696      3698      3696      3699
      3724      3722      3722      3723      3722      3774      3774      3776
      3776      3777      3776      3778      3776      3779      3779      3780
      3779      3781      3779      3782      3782      3783      3782      3784
      3782      3785      3785      3786      3785      3787      3785      3788
      3788      3789      3788      3790      3788      3791      3791      3792
      3791      3793      3791      3794      3794      3795      3794      3796
      3794      3797      3797      3798      3799      3800      3799      3801
      3801      3802      3801      3803      3801      3804      3804      3805
      3804      3806      3804      3807      3807      3808      3807      3809
      3807      3810      3810      3811      3810      3812      3810      3813
      3813      3814      3813      3815      3813      3816      3816      3817
      3816      3818      3816      3819      3819      3820      3819      3821
      3819      3822      3822      3823      3822      3824      3822      3825
      3730      3732      3797      3799      3774      3775      3901      3902
      3901      3903      3901      3904      3901      3898      3898      3899
      3898      3900      3898      3895      3895      3896      3895      3897
      3895      3892      3892      3893      3892      3894      3892      3889
      3889      3890      3889      3891      3889      3886      3886      3887
      3886      3888      3886      3883      3883      3884      3883      3885
      3883      3880      3880      3881      3880      3882      3880      3877
      3877      3878      3877      3879      3877      3874      3874      3875
      3874      3876      3874      3871      3871      3872      3871      3873
      3871      3868      3868      3869      3868      3870      3868      3865
      3865      3866      3865      3867      3865      3863      3863      3864
      3861      3862      3861      3857      3857      3858      3857      3859
      3859      3860      3857      3855      3855      3856      3855      3850
      3850      3851      3850      3852      3850      3848      3848      3845
      3849      3845      3846      3845      3847      3845      3849      3842
      3842      3843      3842      3844      3842      3839      3839      3840
      3839      3841      3839      3826      3826      3835      3826      3831
      3826      3827      3835      3836      3835      3837      3835      3838
      3831      3832      3831      3833      3831      3834      3827      3828
      3827      3829      3827      3830      3855      3853      3853      3854
      3853      3905      3905      3907      3907      3908      3907      3909
      3907      3910      3910      3911      3910      3912      3910      3913
      3913      3914      3913      3915      3913      3916      3916      3917
      3916      3918      3916      3919      3919      3920      3919      3921
      3919      3922      3922      3923      3922      3924      3922      3925
      3925      3926      3925      3927      3925      3928      3928      3929
      3930      3931      3930      3932      3932      3933      3932      3934
      3932      3935      3935      3936      3935      3937      3935      3938
      3938      3939      3938      3940      3938      3941      3941      3942
      3941      3943      3941      3944      3944      3945      3944      3946
      3944      3947      3947      3948      3947      3949      3947      3950
      3950      3951      3950      3952      3950      3953      3953      3954
      3953      3955      3953      3956      3861      3863      3928      3930
      3905      3906      3957      3959      3957      3958      3959      3960
      3957      4003      4003      4004      4003      4005      4003      4000
      4000      4001      4000      4002      3957      3961      3961      3962
      3961      3963      3961      3964      3964      3995      3995      4000
      3995      3996      3996      3997      3996      3998      3996      3999
      3964      3965      3965      3966      3965      3967      3967      3968
      3967      3969      3967      3970      3970      3971      3970      3993
      3993      3994      3993      3995      3970      3972      3972      3973
      3972      3982      3982      3987      3987      3988      3987      3989
      3987      3990      3990      3991      3990      3992      3990      3993
      3982      3983      3983      3984      3983      3985      3983      3986
      3972      3974      3974      3975      3974      3976      3974      3977
      3977      3978      3977      3979      3977      3980      3980      3981
      3980      3982      3980      4006      4006      4007      4006      4008
      4008      4009      4008      4010      4008      4011      4006      4012
      4012      4013      4012      4014      4012      4015      4015      4016
      4015      4017      4015      4018      4018      4019      4018      4020
      4018      4021      4021      4022      4021      4023      4023      4024
      4023      4025      4023      4026      4021      4027      4027      4028
      4027      4029      4027      4030      4031      4035      4031      4039
      4031      4043      4035      4036      4035      4037      4035      4038
      4039      4040      4039      4041      4039      4042      4043      4044
      4043      4045      4043      4046      4031      4032      4032      4033
      4032      4034      4032      4047      4047      4048      4047      4049
      4047      4053      4054      4055      4053      4050      4050      4054
      4050      4051      4050      4052      4055      4056      4055      4057
      4055      4058      4058      4059      4058      4066      4058      4060
      4066      4067      4066      4068      4066      4069      4060      4061
      4061      4063      4061      4062      4063      4064      4063      4065
      4063      4075      4075      4076      4075      4077      4075      4078
      4078      4079      4078      4080      4078      4081      4081      4082
      4081      4083      4081      4084      4084      4085      4084      4086
      4084      4087      4087      4088      4087      4089      4087      4090
      4090      4091      4090      4092      4090      4093      4093      4094
      4093      4095      4095      4096      4095      4097      4097      4098
      4097      4099      4097      4100      4100      4101      4100      4102
      4100      4103      4103      4104      4103      4105      4103      4106
      4106      4107      4106      4108      4106      4109      4109      4110
      4109      4111      4109      4112      4112      4113      4112      4114
      4112      4115      4115      4116      4115      4117      4115      4118
      4118      4119      4118      4120      4118      4121      4069      4070
      4070      4072      4070      4071      4072      4073      4072      4074
      4072      4122      4122      4123      4122      4124      4122      4125
      4125      4126      4125      4127      4125      4128      4128      4129
      4128      4130      4128      4131      4131      4132      4131      4133
      4131      4134      4134      4135      4134      4136      4134      4137
      4137      4138      4137      4139      4137      4140      4140      4141
      4140      4142      4140      4143      4143      4144      4143      4145
      4143      4146      4146      4147      4146      4148      4146      4149
      4149      4150      4149      4151      4149      4152      4152      4153
      4152      4154      4152      4155      4155      4156      4155      4157
      4155      4158      4158      4159      4158      4160      4158      4161
      4161      4162      4161      4163      4161      4164      4240      4241
      4240      4242      4240      4243      4240      4237      4237      4238
      4237      4239      4237      4234      4234      4235      4234      4236
      4234      4231      4231      4232      4231      4233      4231      4228
      4228      4229      4228      4230      4228      4225      4225      4226
      4225      4227      4225      4222      4222      4223      4222      4224
      4222      4219      4219      4220      4219      4221      4219      4216
      4216      4217      4216      4218      4216      4213      4213      4214
      4213      4215      4213      4210      4210      4211      4210      4212
      4210      4207      4207      4208      4207      4209      4207      4204
      4204      4205      4204      4206      4204      4202      4202      4203
      4200      4201      4200      4196      4196      4197      4196      4198
      4198      4199      4196      4194      4194      4195      4194      4189
      4189      4190      4189      4191      4189      4187      4187      4184
      4188      4184      4185      4184      4186      4184      4188      4181
      4181      4182      4181      4183      4181      4178      4178      4179
      4178      4180      4178      4165      4165      4174      4165      4170
      4165      4166      4174      4175      4174      4176      4174      4177
      4170      4171      4170      4172      4170      4173      4166      4167
      4166      4168      4166      4169      4194      4192      4192      4193
      4192      4244      4244      4246      4246      4247      4246      4248
      4246      4249      4249      4250      4249      4251      4249      4252
      4252      4253      4252      4254      4252      4255      4255      4256
      4255      4257      4255      4258      4258      4259      4258      4260
      4258      4261      4261      4262      4261      4263      4261      4264
      4264      4265      4264      4266      4264      4267      4267      4268
      4269      4270      4269      4271      4271      4272      4271      4273
      4271      4274      4274      4275      4274      4276      4274      4277
      4277      4278      4277      4279      4277      4280      4280      4281
      4280      4282      4280      4283      4283      4284      4283      4285
      4283      4286      4286      4287      4286      4288      4286      4289
      4289      4290      4289      4291      4289      4292      4292      4293
      4292      4294      4292      4295      4200      4202      4267      4269
      4244      4245      4316      4317      4316      4312      4316      4296
      4316      4321      4296      4297      4296      4298      4298      4299
      4296      4300      4300      4301      4300      4302      4302      4303
      4300      4304      4304      4305      4304      4306      4306      4307
      4304      4308      4308      4309      4308      4312      4312      4313
      4312      4314      4314      4315      4308      4310      4310      4311
      4321      4318      4318      4322      4318      4319      4318      4320
      4322      4323      4323      4324      4323      4325      4323      4326
      4326      4327      4326      4334      4326      4328      4334      4335
      4334      4336      4334      4337      4328      4329      4329      4331
      4329      4330      4331      4332      4331      4333      4331      4343
      4343      4344      4343      4345      4343      4346      4346      4347
      4346      4348      4346      4349      4349      4350      4349      4351
      4351      4352      4351      4353      4353      4354      4353      4355
      4353      4356      4356      4357      4356      4358      4358      4359
      4358      4360      4360      4361      4360      4362      4360      4363
      4363      4364      4363      4365      4365      4366      4365      4367
      4367      4368      4367      4369      4367      4370      4370      4371
      4370      4372      4372      4373      4372      4374      4374      4375
      4374      4376      4374      4377      4377      4378      4377      4379
      4377      4380      4380      4381      4380      4382      4380      4383
      4383      4384      4383      4385      4383      4386      4386      4387
      4386      4388      4386      4389      4337      4338      4338      4340
      4338      4339      4340      4341      4340      4342      4340      4390
      4390      4391      4390      4392      4390      4393      4393      4394
      4393      4395      4393      4396      4396      4397      4396      4398
      4396      4399      4399      4400      4399      4401      4399      4402
      4402      4403      4402      4404      4402      4405      4405      4406
      4405      4407      4405      4408      4408      4409      4408      4410
      4408      4411      4411      4412      4411      4413      4411      4414
      4414      4415      4414      4416      4414      4417      4417      4418
      4417      4419      4417      4420      4420      4421      4420      4422
      4420      4423      4423      4424      4423      4425      4423      4426
      4426      4427      4426      4428      4426      4429      4429      4430
      4429      4431      4429      4432      4432      4433      4432      4434
      4432      4435      4435      4436      4435      4437      4435      4438
      4439      4440      4439      4441      4439      4442      4439      4443
      4443      4444      4443      4445      4443      4446      4446      4447
      4446      4448      4446      4452      4454      4453      4452      4449
      4449      4453      4449      4450      4449      4451      4454      4455
      4454      4456      4454      4457      4457      4458      4457      4465
      4457      4459      4465      4466      4465      4467      4465      4468
      4459      4460      4460      4462      4460      4461      4462      4463
      4462      4464      4462      4474      4474      4475      4474      4476
      4474      4477      4477      4478      4477      4479      4477      4480
      4480      4481      4480      4482      4480      4483      4483      4484
      4483      4485      4483      4486      4486      4487      4486      4488
      4486      4489      4489      4490      4489      4491      4489      4492
      4492      4493      4492      4494      4494      4495      4494      4496
      4496      4497      4496      4498      4496      4499      4499      4500
      4499      4501      4499      4502      4502      4503      4502      4504
      4502      4505      4505      4506      4505      4507      4505      4508
      4508      4509      4508      4510      4508      4511      4511      4512
      4511      4513      4511      4514      4514      4515      4514      4516
      4514      4517      4517      4518      4517      4519      4517      4520
      4468      4469      4469      4471      4469      4470      4471      4472
      4471      4473      4471      4521      4521      4522      4521      4523
      4521      4524      4524      4525      4524      4526      4524      4527
      4527      4528      4527      4529      4527      4530      4530      4531
      4530      4532      4530      4533      4533      4534      4533      4535
      4533      4536      4536      4537      4536      4538      4536      4539
      4539      4540      4539      4541      4539      4542      4542      4543
      4542      4544      4542      4545      4545      4546      4545      4547
      4545      4548      4548      4549      4548      4550      4548      4551
      4551      4552      4551      4553      4551      4554      4554      4555
      4554      4556      4554      4557      4557      4558      4557      4559
      4557      4560      4560      4561      4560      4562      4560      4563
      4563      4564      4563      4565      4563      4566      4566      4567
      4566      4568      4566      4569      4570      4571      4570      4572
      4570      4573      4570      4574      4574      4575      4574      4576
      4574      4577      4577      4578      4577      4579      4577      4583
      4585      4584      4583      4580      4580      4584      4580      4581
      4580      4582      4585      4586      4585      4587      4585      4588
      4588      4589      4588      4596      4588      4590      4596      4597
      4596      4598      4596      4599      4590      4591      4591      4593
      4591      4592      4593      4594      4593      4595      4593      4605
      4605      4606      4605      4607      4605      4608      4608      4609
      4608      4610      4608      4611      4611      4612      4611      4613
      4613      4614      4613      4615      4615      4616      4615      4617
      4615      4618      4618      4619      4618      4620      4620      4621
      4620      4622      4622      4623      4622      4624      4622      4625
      4625      4626      4625      4627      4627      4628      4627      4629
      4629      4630      4629      4631      4629      4632      4632      4633
      4632      4634      4634      4635      4634      4636      4636      4637
      4636      4638      4636      4639      4639      4640      4639      4641
      4639      4642      4642      4643      4642      4644      4642      4645
      4645      4646      4645      4647      4645      4648      4648      4649
      4648      4650      4648      4651      4599      4600      4600      4602
      4600      4601      4602      4603      4602      4604      4602      4652
      4652      4653      4652      4654      4652      4655      4655      4656
      4655      4657      4655      4658      4658      4659      4658      4660
      4658      4661      4661      4662      4661      4663      4661      4664
      4664      4665      4664      4666      4664      4667      4667      4668
      4667      4669      4667      4670      4670      4671      4670      4672
      4670      4673      4673      4674      4673      4675      4673      4676
      4676      4677      4676      4678      4676      4679      4679      4680
      4679      4681      4679      4682      4682      4683      4682      4684
      4682      4685      4685      4686      4685      4687      4685      4688
      4688      4689      4688      4690      4688      4691      4691      4692
      4691      4693      4691      4694      4694      4695      4694      4696
      4694      4697      4697      4698      4697      4699      4697      4700
      4776      4777      4776      4778      4776      4779      4776      4773
      4773      4774      4773      4775      4773      4770      4770      4771
      4770      4772      4770      4767      4767      4768      4767      4769
      4767      4764      4764      4765      4764      4766      4764      4761
      4761      4762      4761      4763      4761      4758      4758      4759
      4758      4760      4758      4755      4755      4756      4755      4757
      4755      4752      4752      4753      4752      4754      4752      4749
      4749      4750      4749      4751      4749      4746      4746      4747
      4746      4748      4746      4743      4743      4744      4743      4745
      4743      4740      4740      4741      4740      4742      4740      4738
      4738      4739      4736      4737      4736      4732      4732      4733
      4732      4734      4734      4735      4732      4730      4730      4731
      4730      4725      4725      4726      4725      4727      4725      4723
      4723      4720      4724      4720      4721      4720      4722      4720
      4724      4717      4717      4718      4717      4719      4717      4714
      4714      4715      4714      4716      4714      4701      4701      4710
      4701      4706      4701      4702      4710      4711      4710      4712
      4710      4713      4706      4707      4706      4708      4706      4709
      4702      4703      4702      4704      4702      4705      4730      4728
      4728      4729      4728      4780      4780      4782      4782      4783
      4782      4784      4782      4785      4785      4786      4785      4787
      4785      4788      4788      4789      4788      4790      4788      4791
      4791      4792      4791      4793      4791      4794      4794      4795
      4794      4796      4794      4797      4797      4798      4797      4799
      4797      4800      4800      4801      4800      4802      4800      4803
      4803      4804      4805      4806      4805      4807      4807      4808
      4807      4809      4807      4810      4810      4811      4810      4812
      4810      4813      4813      4814      4813      4815      4813      4816
      4816      4817      4816      4818      4816      4819      4819      4820
      4819      4821      4819      4822      4822      4823      4822      4824
      4822      4825      4825      4826      4825      4827      4825      4828
      4828      4829      4828      4830      4828      4831      4736      4738
      4803      4805      4780      4781      4832      4833      4832      4834
      4832      4835      4832      4836      4836      4837      4836      4838
      4836      4839      4839      4840      4839      4841      4839      4845
      4847      4846      4845      4842      4842      4846      4842      4843
      4842      4844      4847      4848      4847      4849      4847      4850
      4850      4851      4850      4858      4850      4852      4858      4859
      4858      4860      4858      4861      4852      4853      4853      4855
      4853      4854      4855      4856      4855      4857      4855      4867
      4867      4868      4867      4869      4867      4870      4870      4871
      4870      4872      4870      4873      4873      4874      4873      4875
      4875      4876      4875      4877      4877      4878      4877      4879
      4877      4880      4880      4881      4880      4882      4882      4883
      4882      4884      4884      4885      4884      4886      4884      4887
      4887      4888      4887      4889      4889      4890      4889      4891
      4891      4892      4891      4893      4891      4894      4894      4895
      4894      4896      4896      4897      4896      4898      4898      4899
      4898      4900      4898      4901      4901      4902      4901      4903
      4901      4904      4904      4905      4904      4906      4904      4907
      4907      4908      4907      4909      4907      4910      4910      4911
      4910      4912      4910      4913      4861      4862      4862      4864
      4862      4863      4864      4865      4864      4866      4864      4914
      4914      4915      4914      4916      4914      4917      4917      4918
      4917      4919      4917      4920      4920      4921      4920      4922
      4920      4923      4923      4924      4923      4925      4923      4926
      4926      4927      4926      4928      4926      4929      4929      4930
      4929      4931      4929      4932      4932      4933      4932      4934
      4932      4935      4935      4936      4935      4937      4935      4938
      4938      4939      4938      4940      4938      4941      4941      4942
      4941      4943      4941      4944      4944      4945      4944      4946
      4944      4947      4947      4948      4947      4949      4947      4950
      4950      4951      4950      4952      4950      4953      4953      4954
      4953      4955      4953      4956      4956      4957      4956      4958
      4956      4959      4959      4960      4959      4961      4959      4962
      5038      5039      5038      5040      5038      5041      5038      5035
      5035      5036      5035      5037      5035      5032      5032      5033
      5032      5034      5032      5029      5029      5030      5029      5031
      5029      5026      5026      5027      5026      5028      5026      5023
      5023      5024      5023      5025      5023      5020      5020      5021
      5020      5022      5020      5017      5017      5018      5017      5019
      5017      5014      5014      5015      5014      5016      5014      5011
      5011      5012      5011      5013      5011      5008      5008      5009
      5008      5010      5008      5005      5005      5006      5005      5007
      5005      5002      5002      5003      5002      5004      5002      5000
      5000      5001      4998      4999      4998      4994      4994      4995
      4994      4996      4996      4997      4994      4992      4992      4993
      4992      4987      4987      4988      4987      4989      4987      4985
      4985      4982      4986      4982      4983      4982      4984      4982
      4986      4979      4979      4980      4979      4981      4979      4976
      4976      4977      4976      4978      4976      4963      4963      4972
      4963      4968      4963      4964      4972      4973      4972      4974
      4972      4975      4968      4969      4968      4970      4968      4971
      4964      4965      4964      4966      4964      4967      4992      4990
      4990      4991      4990      5042      5042      5044      5044      5045
      5044      5046      5044      5047      5047      5048      5047      5049
      5047      5050      5050      5051      5050      5052      5050      5053
      5053      5054      5053      5055      5053      5056      5056      5057
      5056      5058      5056      5059      5059      5060      5059      5061
      5059      5062      5062      5063      5062      5064      5062      5065
      5065      5066      5067      5068      5067      5069      5069      5070
      5069      5071      5069      5072      5072      5073      5072      5074
      5072      5075      5075      5076      5075      5077      5075      5078
      5078      5079      5078      5080      5078      5081      5081      5082
      5081      5083      5081      5084      5084      5085      5084      5086
      5084      5087      5087      5088      5087      5089      5087      5090
      5090      5091      5090      5092      5090      5093      4998      5000
      5065      5067      5042      5043      5094      5095      5094      5096
      5094      5097      5094      5098      5098      5099      5098      5100
      5098      5101      5101      5102      5101      5103      5101      5107
      5109      5108      5107      5104      5104      5108      5104      5105
      5104      5106      5109      5110      5109      5111      5109      5112
      5112      5113      5112      5120      5112      5114      5120      5121
      5120      5122      5120      5123      5114      5115      5115      5117
      5115      5116      5117      5118      5117      5119      5117      5129
      5129      5130      5129      5131      5129      5132      5132      5133
      5132      5134      5132      5135      5135      5136      5135      5137
      5137      5138      5137      5139      5139      5140      5139      5141
      5139      5142      5142      5143      5142      5144      5144      5145
      5144      5146      5146      5147      5146      5148      5146      5149
      5149      5150      5149      5151      5151      5152      5151      5153
      5153      5154      5153      5155      5153      5156      5156      5157
      5156      5158      5158      5159      5158      5160      5160      5161
      5160      5162      5160      5163      5163      5164      5163      5165
      5163      5166      5166      5167      5166      5168      5166      5169
      5169      5170      5169      5171      5169      5172      5172      5173
      5172      5174      5172      5175      5123      5124      5124      5126
      5124      5125      5126      5127      5126      5128      5126      5176
      5176      5177      5176      5178      5176      5179      5179      5180
      5179      5181      5179      5182      5182      5183      5182      5184
      5182      5185      5185      5186      5185      5187      5185      5188
      5188      5189      5188      5190      5188      5191      5191      5192
      5191      5193      5191      5194      5194      5195      5194      5196
      5194      5197      5197      5198      5197      5199      5197      5200
      5200      5201      5200      5202      5200      5203      5203      5204
      5203      5205      5203      5206      5206      5207      5206      5208
      5206      5209      5209      5210      5209      5211      5209      5212
      5212      5213      5212      5214      5212      5215      5215      5216
      5215      5217      5215      5218      5218      5219      5218      5220
      5218      5221      5221      5222      5221      5223      5221      5224
      5225      5227      5225      5226      5227      5228      5225      5271
      5271      5272      5271      5273      5271      5268      5268      5269
      5268      5270      5225      5229      5229      5230      5229      5231
      5229      5232      5232      5263      5263      5268      5263      5264
      5264      5265      5264      5266      5264      5267      5232      5233
      5233      5234      5233      5235      5235      5236      5235      5237
      5235      5238      5238      5239      5238      5261      5261      5262
      5261      5263      5238      5240      5240      5241      5240      5250
      5250      5255      5255      5256      5255      5257      5255      5258
      5258      5259      5258      5260      5258      5261      5250      5251
      5251      5252      5251      5253      5251      5254      5240      5242
      5242      5243      5242      5244      5242      5245      5245      5246
      5245      5247      5245      5248      5248      5249      5248      5250
      5248      5274      5274      5275      5274      5276      5276      5277
      5276      5278      5276      5279      5274      5280      5280      5281
      5280      5282      5280      5283      5283      5284      5283      5285
      5283      5286      5286      5287      5286      5288      5286      5289
      5289      5290      5289      5291      5291      5292      5291      5293
      5291      5294      5289      5295      5295      5296      5295      5297
      5295      5298      5299      5303      5299      5307      5299      5311
      5303      5304      5303      5305      5303      5306      5307      5308
      5307      5309      5307      5310      5311      5312      5311      5313
      5311      5314      5299      5300      5300      5301      5300      5302
      5300      5315      5315      5316      5315      5317      5315      5321
      5322      5323      5321      5318      5318      5322      5318      5319
      5318      5320      5323      5324      5323      5325      5323      5326
      5326      5327      5326      5334      5326      5328      5334      5335
      5334      5336      5334      5337      5328      5329      5329      5331
      5329      5330      5331      5332      5331      5333      5331      5343
      5343      5344      5343      5345      5343      5346      5346      5347
      5346      5348      5346      5349      5349      5350      5349      5351
      5351      5352      5351      5353      5353      5354      5353      5355
      5353      5356      5356      5357      5356      5358      5358      5359
      5358      5360      5360      5361      5360      5362      5360      5363
      5363      5364      5363      5365      5365      5366      5365      5367
      5367      5368      5367      5369      5367      5370      5370      5371
      5370      5372      5372      5373      5372      5374      5374      5375
      5374      5376      5374      5377      5377      5378      5377      5379
      5377      5380      5380      5381      5380      5382      5380      5383
      5383      5384      5383      5385      5383      5386      5386      5387
      5386      5388      5386      5389      5337      5338      5338      5340
      5338      5339      5340      5341      5340      5342      5340      5390
      5390      5391      5390      5392      5390      5393      5393      5394
      5393      5395      5393      5396      5396      5397      5396      5398
      5396      5399      5399      5400      5399      5401      5399      5402
      5402      5403      5402      5404      5402      5405      5405      5406
      5405      5407      5405      5408      5408      5409      5408      5410
      5408      5411      5411      5412      5411      5413      5411      5414
      5414      5415      5414      5416      5414      5417      5417      5418
      5417      5419      5417      5420      5420      5421      5420      5422
      5420      5423      5423      5424      5423      5425      5423      5426
      5426      5427      5426      5428      5426      5429      5429      5430
      5429      5431      5429      5432      5432      5433      5432      5434
      5432      5435      5435      5436      5435      5437      5435      5438
      5439      5441      5439      5440      5441      5442      5439      5485
      5485      5486      5485      5487      5485      5482      5482      5483
      5482      5484      5439      5443      5443      5444      5443      5445
      5443      5446      5446      5477      5477      5482      5477      5478
      5478      5479      5478      5480      5478      5481      5446      5447
      5447      5448      5447      5449      5449      5450      5449      5451
      5449      5452      5452      5453      5452      5475      5475      5476
      5475      5477      5452      5454      5454      5455      5454      5464
      5464      5469      5469      5470      5469      5471      5469      5472
      5472      5473      5472      5474      5472      5475      5464      5465
      5465      5466      5465      5467      5465      5468      5454      5456
      5456      5457      5456      5458      5456      5459      5459      5460
      5459      5461      5459      5462      5462      5463      5462      5464
      5462      5488      5488      5489      5488      5490      5490      5491
      5490      5492      5490      5493      5488      5494      5494      5495
      5494      5496      5494      5497      5497      5498      5497      5499
      5497      5500      5500      5501      5500      5502      5500      5503
      5503      5504      5503      5505      5505      5506      5505      5507
      5505      5508      5503      5509      5509      5510      5509      5511
      5509      5512      5513      5514      5513      5515      5513      5516
      5513      5517      5517      5518      5517      5519      5517      5520
      5520      5521      5520      5522      5520      5526      5528      5527
      5526      5523      5523      5527      5523      5524      5523      5525
      5528      5529      5528      5530      5528      5531      5531      5532
      5531      5539      5531      5533      5539      5540      5539      5541
      5539      5542      5533      5534      5534      5536      5534      5535
      5536      5537      5536      5538      5536      5548      5548      5549
      5548      5550      5548      5551      5551      5552      5551      5553
      5551      5554      5554      5555      5554      5556      5556      5557
      5556      5558      5558      5559      5558      5560      5558      5561
      5561      5562      5561      5563      5563      5564      5563      5565
      5565      5566      5565      5567      5565      5568      5568      5569
      5568      5570      5570      5571      5570      5572      5572      5573
      5572      5574      5572      5575      5575      5576      5575      5577
      5577      5578      5577      5579      5579      5580      5579      5581
      5579      5582      5582      5583      5582      5584      5582      5585
      5585      5586      5585      5587      5585      5588      5588      5589
      5588      5590      5588      5591      5591      5592      5591      5593
      5591      5594      5542      5543      5543      5545      5543      5544
      5545      5546      5545      5547      5545      5595      5595      5596
      5595      5597      5595      5598      5598      5599      5598      5600
      5598      5601      5601      5602      5601      5603      5601      5604
      5604      5605      5604      5606      5604      5607      5607      5608
      5607      5609      5607      5610      5610      5611      5610      5612
      5610      5613      5613      5614      5613      5615      5613      5616
      5616      5617      5616      5618      5616      5619      5619      5620
      5619      5621      5619      5622      5622      5623      5622      5624
      5622      5625      5625      5626      5625      5627      5625      5628
      5628      5629      5628      5630      5628      5631      5631      5632
      5631      5633      5631      5634      5634      5635      5634      5636
      5634      5637      5637      5638      5637      5639      5637      5640
      5640      5641      5640      5642      5640      5643      5719      5720
      5719      5721      5719      5722      5719      5716      5716      5717
      5716      5718      5716      5713      5713      5714      5713      5715
      5713      5710      5710      5711      5710      5712      5710      5707
      5707      5708      5707      5709      5707      5704      5704      5705
      5704      5706      5704      5701      5701      5702      5701      5703
      5701      5698      5698      5699      5698      5700      5698      5695
      5695      5696      5695      5697      5695      5692      5692      5693
      5692      5694      5692      5689      5689      5690      5689      5691
      5689      5686      5686      5687      5686      5688      5686      5683
      5683      5684      5683      5685      5683      5681      5681      5682
      5679      5680      5679      5675      5675      5676      5675      5677
      5677      5678      5675      5673      5673      5674      5673      5668
      5668      5669      5668      5670      5668      5666      5666      5663
      5667      5663      5664      5663      5665      5663      5667      5660
      5660      5661      5660      5662      5660      5657      5657      5658
      5657      5659      5657      5644      5644      5653      5644      5649
      5644      5645      5653      5654      5653      5655      5653      5656
      5649      5650      5649      5651      5649      5652      5645      5646
      5645      5647      5645      5648      5673      5671      5671      5672
      5671      5723      5723      5725      5725      5726      5725      5727
      5725      5728      5728      5729      5728      5730      5728      5731
      5731      5732      5731      5733      5731      5734      5734      5735
      5734      5736      5734      5737      5737      5738      5737      5739
      5737      5740      5740      5741      5740      5742      5740      5743
      5743      5744      5743      5745      5743      5746      5746      5747
      5748      5749      5748      5750      5750      5751      5750      5752
      5750      5753      5753      5754      5753      5755      5753      5756
      5756      5757      5756      5758      5756      5759      5759      5760
      5759      5761      5759      5762      5762      5763      5762      5764
      5762      5765      5765      5766      5765      5767      5765      5768
      5768      5769      5768      5770      5768      5771      5771      5772
      5771      5773      5771      5774      5679      5681      5746      5748
      5723      5724      5775      5776      5775      5780      5775      5784
      5776      5777      5776      5778      5776      5779      5780      5781
      5780      5782      5780      5783      5784      5785      5784      5786
      5784      5787      5775      5788      5788      5789      5788      5790
      5788      5791      5791      5792      5791      5793      5791      5797
      5798      5799      5797      5794      5794      5798      5794      5795
      5794      5796      5799      5800      5799      5801      5799      5802
      5802      5803      5802      5810      5802      5804      5810      5811
      5810      5812      5810      5813      5804      5805      5805      5807
      5805      5806      5807      5808      5807      5809      5807      5819
      5819      5820      5819      5821      5819      5822      5822      5823
      5822      5824      5822      5825      5825      5826      5825      5827
      5825      5828      5828      5829      5828      5830      5828      5831
      5831      5832      5831      5833      5831      5834      5834      5835
      5834      5836      5834      5837      5837      5838      5837      5839
      5839      5840      5839      5841      5841      5842      5841      5843
      5841      5844      5844      5845      5844      5846      5846      5847
      5846      5848      5848      5849      5848      5850      5848      5851
      5851      5852      5851      5853      5851      5854      5854      5855
      5854      5856      5854      5857      5857      5858      5857      5859
      5857      5860      5860      5861      5860      5862      5860      5863
      5813      5814      5814      5816      5814      5815      5816      5817
      5816      5818      5816      5864      5864      5865      5864      5866
      5864      5867      5867      5868      5867      5869      5867      5870
      5870      5871      5870      5872      5870      5873      5873      5874
      5873      5875      5873      5876      5876      5877      5876      5878
      5876      5879      5879      5880      5879      5881      5879      5882
      5882      5883      5882      5884      5882      5885      5885      5886
      5885      5887      5885      5888      5888      5889      5888      5890
      5888      5891      5891      5892      5891      5893      5891      5894
      5894      5895      5894      5896      5894      5897      5897      5898
      5897      5899      5897      5900      5900      5901      5900      5902
      5900      5903      5903      5904      5903      5905      5903      5906
      5906      5907      5906      5908      5906      5909      5909      5910
      5909      5911      5909      5912      5913      5915      5913      5914
      5915      5916      5913      5959      5959      5960      5959      5961
      5959      5956      5956      5957      5956      5958      5913      5917
      5917      5918      5917      5919      5917      5920      5920      5951
      5951      5956      5951      5952      5952      5953      5952      5954
      5952      5955      5920      5921      5921      5922      5921      5923
      5923      5924      5923      5925      5923      5926      5926      5927
      5926      5949      5949      5950      5949      5951      5926      5928
      5928      5929      5928      5938      5938      5943      5943      5944
      5943      5945      5943      5946      5946      5947      5946      5948
      5946      5949      5938      5939      5939      5940      5939      5941
      5939      5942      5928      5930      5930      5931      5930      5932
      5930      5933      5933      5934      5933      5935      5933      5936
      5936      5937      5936      5938      5936      5962      5962      5963
      5962      5964      5964      5965      5964      5966      5964      5967
      5962      5968      5968      5969      5968      5970      5968      5971
      5971      5972      5971      5973      5971      5974      5974      5975
      5974      5976      5974      5977      5977      5978      5977      5979
      5979      5980      5979      5981      5979      5982      5977      5983
      5983      5984      5983      5985      5983      5986      5987      5991
      5987      5995      5987      5999      5991      5992      5991      5993
      5991      5994      5995      5996      5995      5997      5995      5998
      5999      6000      5999      6001      5999      6002      5987      5988
      5988      5989      5988      5990      5988      6003      6003      6004
      6003      6005      6003      6009      6010      6011      6009      6006
      6006      6010      6006      6007      6006      6008      6011      6012
      6011      6013      6011      6014      6014      6015      6014      6022
      6014      6016      6022      6023      6022      6024      6022      6025
      6016      6017      6017      6019      6017      6018      6019      6020
      6019      6021      6019      6031      6031      6032      6031      6033
      6031      6034      6034      6035      6034      6036      6034      6037
      6037      6038      6037      6039      6039      6040      6039      6041
      6041      6042      6041      6043      6041      6044      6044      6045
      6044      6046      6046      6047      6046      6048      6048      6049
      6048      6050      6048      6051      6051      6052      6051      6053
      6053      6054      6053      6055      6055      6056      6055      6057
      6055      6058      6058      6059      6058      6060      6060      6061
      6060      6062      6062      6063      6062      6064      6062      6065
      6065      6066      6065      6067      6065      6068      6068      6069
      6068      6070      6068      6071      6071      6072      6071      6073
      6071      6074      6074      6075      6074      6076      6074      6077
      6025      6026      6026      6028      6026      6027      6028      6029
      6028      6030      6028      6078      6078      6079      6078      6080
      6078      6081      6081      6082      6081      6083      6081      6084
      6084      6085      6084      6086      6084      6087      6087      6088
      6087      6089      6087      6090      6090      6091      6090      6092
      6090      6093      6093      6094      6093      6095      6093      6096
      6096      6097      6096      6098      6096      6099      6099      6100
      6099      6101      6099      6102      6102      6103      6102      6104
      6102      6105      6105      6106      6105      6107      6105      6108
      6108      6109      6108      6110      6108      6111      6111      6112
      6111      6113      6111      6114      6114      6115      6114      6116
      6114      6117      6117      6118      6117      6119      6117      6120
      6120      6121      6120      6122      6120      6123      6123      6124
      6123      6125      6123      6126      6127      6128      6127      6129
      6127      6130      6127      6131      6135      6133      6133      6131
      6133      6134      6131      6132      6131      6136      6144      6143
      6136      6137      6136      6138      6136      6142      6142      6139
      6139      6143      6139      6140      6139      6141      6144      6145
      6144      6146      6144      6147      6147      6148      6147      6155
      6147      6149      6155      6156      6155      6157      6155      6158
      6149      6150      6150      6152      6150      6151      6152      6153
      6152      6154      6152      6164      6164      6165      6164      6166
      6164      6167      6167      6168      6167      6169      6167      6170
      6170      6171      6170      6172      6172      6173      6172      6174
      6174      6175      6174      6176      6174      6177      6177      6178
      6177      6179      6179      6180      6179      6181      6181      6182
      6181      6183      6181      6184      6184      6185      6184      6186
      6186      6187      6186      6188      6188      6189      6188      6190
      6188      6191      6191      6192      6191      6193      6193      6194
      6193      6195      6195      6196      6195      6197      6195      6198
      6198      6199      6198      6200      6198      6201      6201      6202
      6201      6203      6201      6204      6204      6205      6204      6206
      6204      6207      6207      6208      6207      6209      6207      6210
      6158      6159      6159      6161      6159      6160      6161      6162
      6161      6163      6161      6211      6211      6212      6211      6213
      6211      6214      6214      6215      6214      6216      6214      6217
      6217      6218      6217      6219      6217      6220      6220      6221
      6220      6222      6220      6223      6223      6224      6223      6225
      6223      6226      6226      6227      6226      6228      6226      6229
      6229      6230      6229      6231      6229      6232      6232      6233
      6232      6234      6232      6235      6235      6236      6235      6237
      6235      6238      6238      6239      6238      6240      6238      6241
      6241      6242      6241      6243      6241      6244      6244      6245
      6244      6246      6244      6247      6247      6248      6247      6249
      6247      6250      6250      6251      6250      6252      6250      6253
      6253      6254      6253      6255      6253      6256      6256      6257
      6256      6258      6256      6259      6260      6261      6260      6265
      6260      6269      6261      6262      6261      6263      6261      6264
      6265      6266      6265      6267      6265      6268      6269      6270
      6269      6271      6269      6272      6260      6273      6273      6274
      6273      6275      6273      6276      6276      6277      6276      6278
      6276      6282      6283      6284      6282      6279      6279      6283
      6279      6280      6279      6281      6284      6285      6284      6286
      6284      6287      6287      6288      6287      6295      6287      6289
      6295      6296      6295      6297      6295      6298      6289      6290
      6290      6292      6290      6291      6292      6293      6292      6294
      6292      6304      6304      6305      6304      6306      6304      6307
      6307      6308      6307      6309      6307      6310      6310      6311
      6310      6312      6310      6313      6313      6314      6313      6315
      6313      6316      6316      6317      6316      6318      6316      6319
      6319      6320      6319      6321      6319      6322      6322      6323
      6322      6324      6324      6325      6324      6326      6326      6327
      6326      6328      6326      6329      6329      6330      6329      6331
      6331      6332      6331      6333      6333      6334      6333      6335
      6333      6336      6336      6337      6336      6338      6336      6339
      6339      6340      6339      6341      6339      6342      6342      6343
      6342      6344      6342      6345      6345      6346      6345      6347
      6345      6348      6298      6299      6299      6301      6299      6300
      6301      6302      6301      6303      6301      6349      6349      6350
      6349      6351      6349      6352      6352      6353      6352      6354
      6352      6355      6355      6356      6355      6357      6355      6358
      6358      6359      6358      6360      6358      6361      6361      6362
      6361      6363      6361      6364      6364      6365      6364      6366
      6364      6367      6367      6368      6367      6369      6367      6370
      6370      6371      6370      6372      6370      6373      6373      6374
      6373      6375      6373      6376      6376      6377      6376      6378
      6376      6379      6379      6380      6379      6381      6379      6382
      6382      6383      6382      6384      6382      6385      6385      6386
      6385      6387      6385      6388      6388      6389      6388      6390
      6388      6391      6391      6392      6391      6393      6391      6394
      6394      6395      6394      6396      6394      6397      6398      6399
      6398      6400      6398      6401      6398      6402      6402      6403
      6402      6404      6402      6405      6405      6406      6405      6407
      6405      6411      6413      6412      6411      6408      6408      6412
      6408      6409      6408      6410      6413      6414      6413      6415
      6413      6416      6416      6417      6416      6424      6416      6418
      6424      6425      6424      6426      6424      6427      6418      6419
      6419      6421      6419      6420      6421      6422      6421      6423
      6421      6433      6433      6434      6433      6435      6433      6436
      6436      6437      6436      6438      6436      6439      6439      6440
      6439      6441      6439      6442      6442      6443      6442      6444
      6442      6445      6445      6446      6445      6447      6445      6448
      6448      6449      6448      6450      6448      6451      6451      6452
      6451      6453      6453      6454      6453      6455      6455      6456
      6455      6457      6455      6458      6458      6459      6458      6460
      6458      6461      6461      6462      6461      6463      6461      6464
      6464      6465      6464      6466      6464      6467      6467      6468
      6467      6469      6467      6470      6470      6471      6470      6472
      6470      6473      6473      6474      6473      6475      6473      6476
      6476      6477      6476      6478      6476      6479      6427      6428
      6428      6430      6428      6429      6430      6431      6430      6432
      6430      6480      6480      6481      6480      6482      6480      6483
      6483      6484      6483      6485      6483      6486      6486      6487
      6486      6488      6486      6489      6489      6490      6489      6491
      6489      6492      6492      6493      6492      6494      6492      6495
      6495      6496      6495      6497      6495      6498      6498      6499
      6498      6500      6498      6501      6501      6502      6501      6503
      6501      6504      6504      6505      6504      6506      6504      6507
      6507      6508      6507      6509      6507      6510      6510      6511
      6510      6512      6510      6513      6513      6514      6513      6515
      6513      6516      6516      6517      6516      6518      6516      6519
      6519      6520      6519      6521      6519      6522      6522      6523
      6522      6524      6522      6525      6525      6526      6525      6527
      6525      6528      6529      6533      6529      6537      6529      6541
      6533      6534      6533      6535      6533      6536      6537      6538
      6537      6539      6537      6540      6541      6542      6541      6543
      6541      6544      6529      6530      6530      6531      6530      6532
      6530      6545      6545      6546      6545      6547      6545      6551
      6552      6553      6551      6548      6548      6552      6548      6549
      6548      6550      6553      6554      6553      6555      6553      6556
      6556      6557      6556      6564      6556      6558      6564      6565
      6564      6566      6564      6567      6558      6559      6559      6561
      6559      6560      6561      6562      6561      6563      6561      6573
      6573      6574      6573      6575      6573      6576      6576      6577
      6576      6578      6576      6579      6579      6580      6579      6581
      6581      6582      6581      6583      6583      6584      6583      6585
      6583      6586      6586      6587      6586      6588      6588      6589
      6588      6590      6590      6591      6590      6592      6590      6593
      6593      6594      6593      6595      6595      6596      6595      6597
      6597      6598      6597      6599      6597      6600      6600      6601
      6600      6602      6602      6603      6602      6604      6604      6605
      6604      6606      6604      6607      6607      6608      6607      6609
      6607      6610      6610      6611      6610      6612      6610      6613
      6613      6614      6613      6615      6613      6616      6616      6617
      6616      6618      6616      6619      6567      6568      6568      6570
      6568      6569      6570      6571      6570      6572      6570      6620
      6620      6621      6620      6622      6620      6623      6623      6624
      6623      6625      6623      6626      6626      6627      6626      6628
      6626      6629      6629      6630      6629      6631      6629      6632
      6632      6633      6632      6634      6632      6635      6635      6636
      6635      6637      6635      6638      6638      6639      6638      6640
      6638      6641      6641      6642      6641      6643      6641      6644
      6644      6645      6644      6646      6644      6647      6647      6648
      6647      6649      6647      6650      6650      6651      6650      6652
      6650      6653      6653      6654      6653      6655      6653      6656
      6656      6657      6656      6658      6656      6659      6659      6660
      6659      6661      6659      6662      6662      6663      6662      6664
      6662      6665      6665      6666      6665      6667      6665      6668
      6744      6745      6744      6746      6744      6747      6744      6741
      6741      6742      6741      6743      6741      6738      6738      6739
      6738      6740      6738      6735      6735      6736      6735      6737
      6735      6732      6732      6733      6732      6734      6732      6729
      6729      6730      6729      6731      6729      6726      6726      6727
      6726      6728      6726      6723      6723      6724      6723      6725
      6723      6720      6720      6721      6720      6722      6720      6717
      6717      6718      6717      6719      6717      6714      6714      6715
      6714      6716      6714      6711      6711      6712      6711      6713
      6711      6708      6708      6709      6708      6710      6708      6706
      6706      6707      6704      6705      6704      6700      6700      6701
      6700      6702      6702      6703      6700      6698      6698      6699
      6698      6693      6693      6694      6693      6695      6693      6691
      6691      6688      6692      6688      6689      6688      6690      6688
      6692      6685      6685      6686      6685      6687      6685      6682
      6682      6683      6682      6684      6682      6669      6669      6678
      6669      6674      6669      6670      6678      6679      6678      6680
      6678      6681      6674      6675      6674      6676      6674      6677
      6670      6671      6670      6672      6670      6673      6698      6696
      6696      6697      6696      6748      6748      6750      6750      6751
      6750      6752      6750      6753      6753      6754      6753      6755
      6753      6756      6756      6757      6756      6758      6756      6759
      6759      6760      6759      6761      6759      6762      6762      6763
      6762      6764      6762      6765      6765      6766      6765      6767
      6765      6768      6768      6769      6768      6770      6768      6771
      6771      6772      6773      6774      6773      6775      6775      6776
      6775      6777      6775      6778      6778      6779      6778      6780
      6778      6781      6781      6782      6781      6783      6781      6784
      6784      6785      6784      6786      6784      6787      6787      6788
      6787      6789      6787      6790      6790      6791      6790      6792
      6790      6793      6793      6794      6793      6795      6793      6796
      6796      6797      6796      6798      6796      6799      6704      6706
      6771      6773      6748      6749      6800      6802      6800      6801
      6802      6803      6800      6846      6846      6847      6846      6848
      6846      6843      6843      6844      6843      6845      6800      6804
      6804      6805      6804      6806      6804      6807      6807      6838
      6838      6843      6838      6839      6839      6840      6839      6841
      6839      6842      6807      6808      6808      6809      6808      6810
      6810      6811      6810      6812      6810      6813      6813      6814
      6813      6836      6836      6837      6836      6838      6813      6815
      6815      6816      6815      6825      6825      6830      6830      6831
      6830      6832      6830      6833      6833      6834      6833      6835
      6833      6836      6825      6826      6826      6827      6826      6828
      6826      6829      6815      6817      6817      6818      6817      6819
      6817      6820      6820      6821      6820      6822      6820      6823
      6823      6824      6823      6825      6823      6849      6849      6850
      6849      6851      6851      6852      6851      6853      6851      6854
      6849      6855      6855      6856      6855      6857      6855      6858
      6858      6859      6858      6860      6858      6861      6861      6862
      6861      6863      6861      6864      6864      6865      6864      6866
      6866      6867      6866      6868      6866      6869      6864      6870
      6870      6871      6870      6872      6870      6873      6874      6875
      6874      6879      6874      6883      6875      6876      6875      6877
      6875      6878      6879      6880      6879      6881      6879      6882
      6883      6884      6883      6885      6883      6886      6874      6887
      6887      6888      6887      6889      6887      6890      6890      6891
      6890      6892      6890      6896      6897      6898      6896      6893
      6893      6897      6893      6894      6893      6895      6898      6899
      6898      6900      6898      6901      6901      6902      6901      6909
      6901      6903      6909      6910      6909      6911      6909      6912
      6903      6904      6904      6906      6904      6905      6906      6907
      6906      6908      6906      6918      6918      6919      6918      6920
      6918      6921      6921      6922      6921      6923      6921      6924
      6924      6925      6924      6926      6924      6927      6927      6928
      6927      6929      6927      6930      6930      6931      6930      6932
      6930      6933      6933      6934      6933      6935      6933      6936
      6936      6937      6936      6938      6938      6939      6938      6940
      6940      6941      6940      6942      6940      6943      6943      6944
      6943      6945      6945      6946      6945      6947      6947      6948
      6947      6949      6947      6950      6950      6951      6950      6952
      6950      6953      6953      6954      6953      6955      6953      6956
      6956      6957      6956      6958      6956      6959      6959      6960
      6959      6961      6959      6962      6912      6913      6913      6915
      6913      6914      6915      6916      6915      6917      6915      6963
      6963      6964      6963      6965      6963      6966      6966      6967
      6966      6968      6966      6969      6969      6970      6969      6971
      6969      6972      6972      6973      6972      6974      6972      6975
      6975      6976      6975      6977      6975      6978      6978      6979
      6978      6980      6978      6981      6981      6982      6981      6983
      6981      6984      6984      6985      6984      6986      6984      6987
      6987      6988      6987      6989      6987      6990      6990      6991
      6990      6992      6990      6993      6993      6994      6993      6995
      6993      6996      6996      6997      6996      6998      6996      6999
      6999      7000      6999      7001      6999      7002      7002      7003
      7002      7004      7002      7005      7005      7006      7005      7007
      7005      7008      7008      7009      7008      7010      7008      7011
      7012      7014      7012      7013      7014      7015      7012      7058
      7058      7059      7058      7060      7058      7055      7055      7056
      7055      7057      7012      7016      7016      7017      7016      7018
      7016      7019      7019      7050      7050      7055      7050      7051
      7051      7052      7051      7053      7051      7054      7019      7020
      7020      7021      7020      7022      7022      7023      7022      7024
      7022      7025      7025      7026      7025      7048      7048      7049
      7048      7050      7025      7027      7027      7028      7027      7037
      7037      7042      7042      7043      7042      7044      7042      7045
      7045      7046      7045      7047      7045      7048      7037      7038
      7038      7039      7038      7040      7038      7041      7027      7029
      7029      7030      7029      7031      7029      7032      7032      7033
      7032      7034      7032      7035      7035      7036      7035      7037
      7035      7061      7061      7062      7061      7063      7063      7064
      7063      7065      7063      7066      7061      7067      7067      7068
      7067      7069      7067      7070      7070      7071      7070      7072
      7070      7073      7073      7074      7073      7075      7073      7076
      7076      7077      7076      7078      7078      7079      7078      7080
      7078      7081      7076      7082      7082      7083      7082      7084
      7082      7085      7106      7107      7106      7102      7106      7086
      7106      7111      7086      7087      7086      7088      7088      7089
      7086      7090      7090      7091      7090      7092      7092      7093
      7090      7094      7094      7095      7094      7096      7096      7097
      7094      7098      7098      7099      7098      7102      7102      7103
      7102      7104      7104      7105      7098      7100      7100      7101
      7111      7108      7108      7112      7108      7109      7108      7110
      7112      7113      7113      7114      7113      7115      7113      7116
      7116      7117      7116      7124      7116      7118      7124      7125
      7124      7126      7124      7127      7118      7119      7119      7121
      7119      7120      7121      7122      7121      7123      7121      7133
      7133      7134      7133      7135      7133      7136      7136      7137
      7136      7138      7136      7139      7139      7140      7139      7141
      7141      7142      7141      7143      7143      7144      7143      7145
      7143      7146      7146      7147      7146      7148      7148      7149
      7148      7150      7150      7151      7150      7152      7150      7153
      7153      7154      7153      7155      7155      7156      7155      7157
      7157      7158      7157      7159      7157      7160      7160      7161
      7160      7162      7162      7163      7162      7164      7164      7165
      7164      7166      7164      7167      7167      7168      7167      7169
      7167      7170      7170      7171      7170      7172      7170      7173
      7173      7174      7173      7175      7173      7176      7176      7177
      7176      7178      7176      7179      7127      7128      7128      7130
      7128      7129      7130      7131      7130      7132      7130      7180
      7180      7181      7180      7182      7180      7183      7183      7184
      7183      7185      7183      7186      7186      7187      7186      7188
      7186      7189      7189      7190      7189      7191      7189      7192
      7192      7193      7192      7194      7192      7195      7195      7196
      7195      7197      7195      7198      7198      7199      7198      7200
      7198      7201      7201      7202      7201      7203      7201      7204
      7204      7205      7204      7206      7204      7207      7207      7208
      7207      7209      7207      7210      7210      7211      7210      7212
      7210      7213      7213      7214      7213      7215      7213      7216
      7216      7217      7216      7218      7216      7219      7219      7220
      7219      7221      7219      7222      7222      7223      7222      7224
      7222      7225      7225      7226      7225      7227      7225      7228
      7229      7231      7229      7230      7231      7232      7229      7275
      7275      7276      7275      7277      7275      7272      7272      7273
      7272      7274      7229      7233      7233      7234      7233      7235
      7233      7236      7236      7267      7267      7272      7267      7268
      7268      7269      7268      7270      7268      7271      7236      7237
      7237      7238      7237      7239      7239      7240      7239      7241
      7239      7242      7242      7243      7242      7265      7265      7266
      7265      7267      7242      7244      7244      7245      7244      7254
      7254      7259      7259      7260      7259      7261      7259      7262
      7262      7263      7262      7264      7262      7265      7254      7255
      7255      7256      7255      7257      7255      7258      7244      7246
      7246      7247      7246      7248      7246      7249      7249      7250
      7249      7251      7249      7252      7252      7253      7252      7254
      7252      7278      7278      7279      7278      7280      7280      7281
      7280      7282      7280      7283      7278      7284      7284      7285
      7284      7286      7284      7287      7287      7288      7287      7289
      7287      7290      7290      7291      7290      7292      7290      7293
      7293      7294      7293      7295      7295      7296      7295      7297
      7295      7298      7293      7299      7299      7300      7299      7301
      7299      7302      7303      7304      7303      7308      7303      7312
      7304      7305      7304      7306      7304      7307      7308      7309
      7308      7310      7308      7311      7312      7313      7312      7314
      7312      7315      7303      7316      7316      7317      7316      7318
      7316      7319      7319      7320      7319      7321      7319      7325
      7326      7327      7325      7322      7322      7326      7322      7323
      7322      7324      7327      7328      7327      7329      7327      7330
      7330      7331      7330      7338      7330      7332      7338      7339
      7338      7340      7338      7341      7332      7333      7333      7335
      7333      7334      7335      7336      7335      7337      7335      7347
      7347      7348      7347      7349      7347      7350      7350      7351
      7350      7352      7350      7353      7353      7354      7353      7355
      7353      7356      7356      7357      7356      7358      7356      7359
      7359      7360      7359      7361      7359      7362      7362      7363
      7362      7364      7362      7365      7365      7366      7365      7367
      7367      7368      7367      7369      7369      7370      7369      7371
      7369      7372      7372      7373      7372      7374      7374      7375
      7374      7376      7376      7377      7376      7378      7376      7379
      7379      7380      7379      7381      7379      7382      7382      7383
      7382      7384      7382      7385      7385      7386      7385      7387
      7385      7388      7388      7389      7388      7390      7388      7391
      7341      7342      7342      7344      7342      7343      7344      7345
      7344      7346      7344      7392      7392      7393      7392      7394
      7392      7395      7395      7396      7395      7397      7395      7398
      7398      7399      7398      7400      7398      7401      7401      7402
      7401      7403      7401      7404      7404      7405      7404      7406
      7404      7407      7407      7408      7407      7409      7407      7410
      7410      7411      7410      7412      7410      7413      7413      7414
      7413      7415      7413      7416      7416      7417      7416      7418
      7416      7419      7419      7420      7419      7421      7419      7422
      7422      7423      7422      7424      7422      7425      7425      7426
      7425      7427      7425      7428      7428      7429      7428      7430
      7428      7431      7431      7432      7431      7433      7431      7434
      7434      7435      7434      7436      7434      7437      7437      7438
      7437      7439      7437      7440      7441      7442      7441      7443
      7441      7444      7441      7445      7445      7446      7445      7447
      7445      7448      7448      7449      7448      7450      7448      7454
      7456      7455      7454      7451      7451      7455      7451      7452
      7451      7453      7456      7457      7456      7458      7456      7459
      7459      7460      7459      7467      7459      7461      7467      7468
      7467      7469      7467      7470      7461      7462      7462      7464
      7462      7463      7464      7465      7464      7466      7464      7476
      7476      7477      7476      7478      7476      7479      7479      7480
      7479      7481      7479      7482      7482      7483      7482      7484
      7484      7485      7484      7486      7486      7487      7486      7488
      7486      7489      7489      7490      7489      7491      7491      7492
      7491      7493      7493      7494      7493      7495      7493      7496
      7496      7497      7496      7498      7498      7499      7498      7500
      7500      7501      7500      7502      7500      7503      7503      7504
      7503      7505      7505      7506      7505      7507      7507      7508
      7507      7509      7507      7510      7510      7511      7510      7512
      7510      7513      7513      7514      7513      7515      7513      7516
      7516      7517      7516      7518      7516      7519      7519      7520
      7519      7521      7519      7522      7470      7471      7471      7473
      7471      7472      7473      7474      7473      7475      7473      7523
      7523      7524      7523      7525      7523      7526      7526      7527
      7526      7528      7526      7529      7529      7530      7529      7531
      7529      7532      7532      7533      7532      7534      7532      7535
      7535      7536      7535      7537      7535      7538      7538      7539
      7538      7540      7538      7541      7541      7542      7541      7543
      7541      7544      7544      7545      7544      7546      7544      7547
      7547      7548      7547      7549      7547      7550      7550      7551
      7550      7552      7550      7553      7553      7554      7553      7555
      7553      7556      7556      7557      7556      7558      7556      7559
      7559      7560      7559      7561      7559      7562      7562      7563
      7562      7564      7562      7565      7565      7566      7565      7567
      7565      7568      7568      7569      7568      7570      7568      7571
      7572      7573      7572      7574      7572      7575      7572      7576
      7580      7578      7578      7576      7578      7579      7576      7577
      7576      7581      7589      7588      7581      7582      7581      7583
      7581      7587      7587      7584      7584      7588      7584      7585
      7584      7586      7589      7590      7589      7591      7589      7592
      7592      7593      7592      7600      7592      7594      7600      7601
      7600      7602      7600      7603      7594      7595      7595      7597
      7595      7596      7597      7598      7597      7599      7597      7609
      7609      7610      7609      7611      7609      7612      7612      7613
      7612      7614      7612      7615      7615      7616      7615      7617
      7617      7618      7617      7619      7619      7620      7619      7621
      7619      7622      7622      7623      7622      7624      7624      7625
      7624      7626      7626      7627      7626      7628      7626      7629
      7629      7630      7629      7631      7631      7632      7631      7633
      7633      7634      7633      7635      7633      7636      7636      7637
      7636      7638      7638      7639      7638      7640      7640      7641
      7640      7642      7640      7643      7643      7644      7643      7645
      7643      7646      7646      7647      7646      7648      7646      7649
      7649      7650      7649      7651      7649      7652      7652      7653
      7652      7654      7652      7655      7603      7604      7604      7606
      7604      7605      7606      7607      7606      7608      7606      7656
      7656      7657      7656      7658      7656      7659      7659      7660
      7659      7661      7659      7662      7662      7663      7662      7664
      7662      7665      7665      7666      7665      7667      7665      7668
      7668      7669      7668      7670      7668      7671      7671      7672
      7671      7673      7671      7674      7674      7675      7674      7676
      7674      7677      7677      7678      7677      7679      7677      7680
      7680      7681      7680      7682      7680      7683      7683      7684
      7683      7685      7683      7686      7686      7687      7686      7688
      7686      7689      7689      7690      7689      7691      7689      7692
      7692      7693      7692      7694      7692      7695      7695      7696
      7695      7697      7695      7698      7698      7699      7698      7700
      7698      7701      7701      7702      7701      7703      7701      7704
      7705      7707      7705      7706      7707      7708      7705      7751
      7751      7752      7751      7753      7751      7748      7748      7749
      7748      7750      7705      7709      7709      7710      7709      7711
      7709      7712      7712      7743      7743      7748      7743      7744
      7744      7745      7744      7746      7744      7747      7712      7713
      7713      7714      7713      7715      7715      7716      7715      7717
      7715      7718      7718      7719      7718      7741      7741      7742
      7741      7743      7718      7720      7720      7721      7720      7730
      7730      7735      7735      7736      7735      7737      7735      7738
      7738      7739      7738      7740      7738      7741      7730      7731
      7731      7732      7731      7733      7731      7734      7720      7722
      7722      7723      7722      7724      7722      7725      7725      7726
      7725      7727      7725      7728      7728      7729      7728      7730
      7728      7754      7754      7755      7754      7756      7756      7757
      7756      7758      7756      7759      7754      7760      7760      7761
      7760      7762      7760      7763      7763      7764      7763      7765
      7763      7766      7766      7767      7766      7768      7766      7769
      7769      7770      7769      7771      7771      7772      7771      7773
      7771      7774      7769      7775      7775      7776      7775      7777
      7775      7778      7779      7783      7779      7787      7779      7791
      7783      7784      7783      7785      7783      7786      7787      7788
      7787      7789      7787      7790      7791      7792      7791      7793
      7791      7794      7779      7780      7780      7781      7780      7782
      7780      7795      7795      7796      7795      7797      7795      7801
      7802      7803      7801      7798      7798      7802      7798      7799
      7798      7800      7803      7804      7803      7805      7803      7806
      7806      7807      7806      7814      7806      7808      7814      7815
      7814      7816      7814      7817      7808      7809      7809      7811
      7809      7810      7811      7812      7811      7813      7811      7823
      7823      7824      7823      7825      7823      7826      7826      7827
      7826      7828      7826      7829      7829      7830      7829      7831
      7829      7832      7832      7833      7832      7834      7832      7835
      7835      7836      7835      7837      7835      7838      7838      7839
      7838      7840      7838      7841      7841      7842      7841      7843
      7843      7844      7843      7845      7845      7846      7845      7847
      7845      7848      7848      7849      7848      7850      7848      7851
      7851      7852      7851      7853      7851      7854      7854      7855
      7854      7856      7854      7857      7857      7858      7857      7859
      7857      7860      7860      7861      7860      7862      7860      7863
      7863      7864      7863      7865      7863      7866      7866      7867
      7866      7868      7866      7869      7817      7818      7818      7820
      7818      7819      7820      7821      7820      7822      7820      7870
      7870      7871      7870      7872      7870      7873      7873      7874
      7873      7875      7873      7876      7876      7877      7876      7878
      7876      7879      7879      7880      7879      7881      7879      7882
      7882      7883      7882      7884      7882      7885      7885      7886
      7885      7887      7885      7888      7888      7889      7888      7890
      7888      7891      7891      7892      7891      7893      7891      7894
      7894      7895      7894      7896      7894      7897      7897      7898
      7897      7899      7897      7900      7900      7901      7900      7902
      7900      7903      7903      7904      7903      7905      7903      7906
      7906      7907      7906      7908      7906      7909      7909      7910
      7909      7911      7909      7912      7988      7989      7988      7990
      7988      7991      7988      7985      7985      7986      7985      7987
      7985      7982      7982      7983      7982      7984      7982      7979
      7979      7980      7979      7981      7979      7976      7976      7977
      7976      7978      7976      7973      7973      7974      7973      7975
      7973      7970      7970      7971      7970      7972      7970      7967
      7967      7968      7967      7969      7967      7964      7964      7965
      7964      7966      7964      7961      7961      7962      7961      7963
      7961      7958      7958      7959      7958      7960      7958      7955
      7955      7956      7955      7957      7955      7952      7952      7953
      7952      7954      7952      7950      7950      7951      7948      7949
      7948      7944      7944      7945      7944      7946      7946      7947
      7944      7942      7942      7943      7942      7937      7937      7938
      7937      7939      7937      7935      7935      7932      7936      7932
      7933      7932      7934      7932      7936      7929      7929      7930
      7929      7931      7929      7926      7926      7927      7926      7928
      7926      7913      7913      7922      7913      7918      7913      7914
      7922      7923      7922      7924      7922      7925      7918      7919
      7918      7920      7918      7921      7914      7915      7914      7916
      7914      7917      7942      7940      7940      7941      7940      7992
      7992      7994      7994      7995      7994      7996      7994      7997
      7997      7998      7997      7999      7997      8000      8000      8001
      8000      8002      8000      8003      8003      8004      8003      8005
      8003      8006      8006      8007      8006      8008      8006      8009
      8009      8010      8009      8011      8009      8012      8012      8013
      8012      8014      8012      8015      8015      8016      8017      8018
      8017      8019      8019      8020      8019      8021      8019      8022
      8022      8023      8022      8024      8022      8025      8025      8026
      8025      8027      8025      8028      8028      8029      8028      8030
      8028      8031      8031      8032      8031      8033      8031      8034
      8034      8035      8034      8036      8034      8037      8037      8038
      8037      8039      8037      8040      8040      8041      8040      8042
      8040      8043      7948      7950      8015      8017      7992      7993
      8044      8045      8044      8046      8044      8047      8044      8048
      8052      8050      8050      8048      8050      8051      8048      8049
      8048      8053      8061      8060      8053      8054      8053      8055
      8053      8059      8059      8056      8056      8060      8056      8057
      8056      8058      8061      8062      8061      8063      8061      8064
      8064      8065      8064      8072      8064      8066      8072      8073
      8072      8074      8072      8075      8066      8067      8067      8069
      8067      8068      8069      8070      8069      8071      8069      8081
      8081      8082      8081      8083      8081      8084      8084      8085
      8084      8086      8084      8087      8087      8088      8087      8089
      8089      8090      8089      8091      8091      8092      8091      8093
      8091      8094      8094      8095      8094      8096      8096      8097
      8096      8098      8098      8099      8098      8100      8098      8101
      8101      8102      8101      8103      8103      8104      8103      8105
      8105      8106      8105      8107      8105      8108      8108      8109
      8108      8110      8110      8111      8110      8112      8112      8113
      8112      8114      8112      8115      8115      8116      8115      8117
      8115      8118      8118      8119      8118      8120      8118      8121
      8121      8122      8121      8123      8121      8124      8124      8125
      8124      8126      8124      8127      8075      8076      8076      8078
      8076      8077      8078      8079      8078      8080      8078      8128
      8128      8129      8128      8130      8128      8131      8131      8132
      8131      8133      8131      8134      8134      8135      8134      8136
      8134      8137      8137      8138      8137      8139      8137      8140
      8140      8141      8140      8142      8140      8143      8143      8144
      8143      8145      8143      8146      8146      8147      8146      8148
      8146      8149      8149      8150      8149      8151      8149      8152
      8152      8153      8152      8154      8152      8155      8155      8156
      8155      8157      8155      8158      8158      8159      8158      8160
      8158      8161      8161      8162      8161      8163      8161      8164
      8164      8165      8164      8166      8164      8167      8167      8168
      8167      8169      8167      8170      8170      8171      8170      8172
      8170      8173      8173      8174      8173      8175      8173      8176
      8252      8253      8252      8254      8252      8255      8252      8249
      8249      8250      8249      8251      8249      8246      8246      8247
      8246      8248      8246      8243      8243      8244      8243      8245
      8243      8240      8240      8241      8240      8242      8240      8237
      8237      8238      8237      8239      8237      8234      8234      8235
      8234      8236      8234      8231      8231      8232      8231      8233
      8231      8228      8228      8229      8228      8230      8228      8225
      8225      8226      8225      8227      8225      8222      8222      8223
      8222      8224      8222      8219      8219      8220      8219      8221
      8219      8216      8216      8217      8216      8218      8216      8214
      8214      8215      8212      8213      8212      8208      8208      8209
      8208      8210      8210      8211      8208      8206      8206      8207
      8206      8201      8201      8202      8201      8203      8201      8199
      8199      8196      8200      8196      8197      8196      8198      8196
      8200      8193      8193      8194      8193      8195      8193      8190
      8190      8191      8190      8192      8190      8177      8177      8186
      8177      8182      8177      8178      8186      8187      8186      8188
      8186      8189      8182      8183      8182      8184      8182      8185
      8178      8179      8178      8180      8178      8181      8206      8204
      8204      8205      8204      8256      8256      8258      8258      8259
      8258      8260      8258      8261      8261      8262      8261      8263
      8261      8264      8264      8265      8264      8266      8264      8267
      8267      8268      8267      8269      8267      8270      8270      8271
      8270      8272      8270      8273      8273      8274      8273      8275
      8273      8276      8276      8277      8276      8278      8276      8279
      8279      8280      8281      8282      8281      8283      8283      8284
      8283      8285      8283      8286      8286      8287      8286      8288
      8286      8289      8289      8290      8289      8291      8289      8292
      8292      8293      8292      8294      8292      8295      8295      8296
      8295      8297      8295      8298      8298      8299      8298      8300
      8298      8301      8301      8302      8301      8303      8301      8304
      8304      8305      8304      8306      8304      8307      8212      8214
      8279      8281      8256      8257      8308      8310      8308      8309
      8310      8311      8308      8354      8354      8355      8354      8356
      8354      8351      8351      8352      8351      8353      8308      8312
      8312      8313      8312      8314      8312      8315      8315      8346
      8346      8351      8346      8347      8347      8348      8347      8349
      8347      8350      8315      8316      8316      8317      8316      8318
      8318      8319      8318      8320      8318      8321      8321      8322
      8321      8344      8344      8345      8344      8346      8321      8323
      8323      8324      8323      8333      8333      8338      8338      8339
      8338      8340      8338      8341      8341      8342      8341      8343
      8341      8344      8333      8334      8334      8335      8334      8336
      8334      8337      8323      8325      8325      8326      8325      8327
      8325      8328      8328      8329      8328      8330      8328      8331
      8331      8332      8331      8333      8331      8357      8357      8358
      8357      8359      8359      8360      8359      8361      8359      8362
      8357      8363      8363      8364      8363      8365      8363      8366
      8366      8367      8366      8368      8366      8369      8369      8370
      8369      8371      8369      8372      8372      8373      8372      8374
      8374      8375      8374      8376      8374      8377      8372      8378
      8378      8379      8378      8380      8378      8381      8382      8386
      8382      8390      8382      8394      8386      8387      8386      8388
      8386      8389      8390      8391      8390      8392      8390      8393
      8394      8395      8394      8396      8394      8397      8382      8383
      8383      8384      8383      8385      8383      8398      8398      8399
      8398      8400      8398      8404      8405      8406      8404      8401
      8401      8405      8401      8402      8401      8403      8406      8407
      8406      8408      8406      8409      8409      8410      8409      8417
      8409      8411      8417      8418      8417      8419      8417      8420
      8411      8412      8412      8414      8412      8413      8414      8415
      8414      8416      8414      8426      8426      8427      8426      8428
      8426      8429      8429      8430      8429      8431      8429      8432
      8432      8433      8432      8434      8434      8435      8434      8436
      8436      8437      8436      8438      8436      8439      8439      8440
      8439      8441      8441      8442      8441      8443      8443      8444
      8443      8445      8443      8446      8446      8447      8446      8448
      8448      8449      8448      8450      8450      8451      8450      8452
      8450      8453      8453      8454      8453      8455      8455      8456
      8455      8457      8457      8458      8457      8459      8457      8460
      8460      8461      8460      8462      8460      8463      8463      8464
      8463      8465      8463      8466      8466      8467      8466      8468
      8466      8469      8469      8470      8469      8471      8469      8472
      8420      8421      8421      8423      8421      8422      8423      8424
      8423      8425      8423      8473      8473      8474      8473      8475
      8473      8476      8476      8477      8476      8478      8476      8479
      8479      8480      8479      8481      8479      8482      8482      8483
      8482      8484      8482      8485      8485      8486      8485      8487
      8485      8488      8488      8489      8488      8490      8488      8491
      8491      8492      8491      8493      8491      8494      8494      8495
      8494      8496      8494      8497      8497      8498      8497      8499
      8497      8500      8500      8501      8500      8502      8500      8503
      8503      8504      8503      8505      8503      8506      8506      8507
      8506      8508      8506      8509      8509      8510      8509      8511
      8509      8512      8512      8513      8512      8514      8512      8515
      8515      8516      8515      8517      8515      8518      8518      8519
      8518      8520      8518      8521      8522      8524      8522      8523
      8524      8525      8522      8568      8568      8569      8568      8570
      8568      8565      8565      8566      8565      8567      8522      8526
      8526      8527      8526      8528      8526      8529      8529      8560
      8560      8565      8560      8561      8561      8562      8561      8563
      8561      8564      8529      8530      8530      8531      8530      8532
      8532      8533      8532      8534      8532      8535      8535      8536
      8535      8558      8558      8559      8558      8560      8535      8537
      8537      8538      8537      8547      8547      8552      8552      8553
      8552      8554      8552      8555      8555      8556      8555      8557
      8555      8558      8547      8548      8548      8549      8548      8550
      8548      8551      8537      8539      8539      8540      8539      8541
      8539      8542      8542      8543      8542      8544      8542      8545
      8545      8546      8545      8547      8545      8571      8571      8572
      8571      8573      8573      8574      8573      8575      8573      8576
      8571      8577      8577      8578      8577      8579      8577      8580
      8580      8581      8580      8582      8580      8583      8583      8584
      8583      8585      8583      8586      8586      8587      8586      8588
      8588      8589      8588      8590      8588      8591      8586      8592
      8592      8593      8592      8594      8592      8595      8596      8597
      8596      8598      8596      8599      8596      8600      8604      8602
      8602      8600      8602      8603      8600      8601      8600      8605
      8613      8612      8605      8606      8605      8607      8605      8611
      8611      8608      8608      8612      8608      8609      8608      8610
      8613      8614      8613      8615      8613      8616      8616      8617
      8616      8624      8616      8618      8624      8625      8624      8626
      8624      8627      8618      8619      8619      8621      8619      8620
      8621      8622      8621      8623      8621      8633      8633      8634
      8633      8635      8633      8636      8636      8637      8636      8638
      8636      8639      8639      8640      8639      8641      8641      8642
      8641      8643      8643      8644      8643      8645      8643      8646
      8646      8647      8646      8648      8648      8649      8648      8650
      8650      8651      8650      8652      8650      8653      8653      8654
      8653      8655      8655      8656      8655      8657      8657      8658
      8657      8659      8657      8660      8660      8661      8660      8662
      8662      8663      8662      8664      8664      8665      8664      8666
      8664      8667      8667      8668      8667      8669      8667      8670
      8670      8671      8670      8672      8670      8673      8673      8674
      8673      8675      8673      8676      8676      8677      8676      8678
      8676      8679      8627      8628      8628      8630      8628      8629
      8630      8631      8630      8632      8630      8680      8680      8681
      8680      8682      8680      8683      8683      8684      8683      8685
      8683      8686      8686      8687      8686      8688      8686      8689
      8689      8690      8689      8691      8689      8692      8692      8693
      8692      8694      8692      8695      8695      8696      8695      8697
      8695      8698      8698      8699      8698      8700      8698      8701
      8701      8702      8701      8703      8701      8704      8704      8705
      8704      8706      8704      8707      8707      8708      8707      8709
      8707      8710      8710      8711      8710      8712      8710      8713
      8713      8714      8713      8715      8713      8716      8716      8717
      8716      8718      8716      8719      8719      8720      8719      8721
      8719      8722      8722      8723      8722      8724      8722      8725
      8725      8726      8725      8727      8725      8728      8804      8805
      8804      8806      8804      8807      8804      8801      8801      8802
      8801      8803      8801      8798      8798      8799      8798      8800
      8798      8795      8795      8796      8795      8797      8795      8792
      8792      8793      8792      8794      8792      8789      8789      8790
      8789      8791      8789      8786      8786      8787      8786      8788
      8786      8783      8783      8784      8783      8785      8783      8780
      8780      8781      8780      8782      8780      8777      8777      8778
      8777      8779      8777      8774      8774      8775      8774      8776
      8774      8771      8771      8772      8771      8773      8771      8768
      8768      8769      8768      8770      8768      8766      8766      8767
      8764      8765      8764      8760      8760      8761      8760      8762
      8762      8763      8760      8758      8758      8759      8758      8753
      8753      8754      8753      8755      8753      8751      8751      8748
      8752      8748      8749      8748      8750      8748      8752      8745
      8745      8746      8745      8747      8745      8742      8742      8743
      8742      8744      8742      8729      8729      8738      8729      8734
      8729      8730      8738      8739      8738      8740      8738      8741
      8734      8735      8734      8736      8734      8737      8730      8731
      8730      8732      8730      8733      8758      8756      8756      8757
      8756      8808      8808      8810      8810      8811      8810      8812
      8810      8813      8813      8814      8813      8815      8813      8816
      8816      8817      8816      8818      8816      8819      8819      8820
      8819      8821      8819      8822      8822      8823      8822      8824
      8822      8825      8825      8826      8825      8827      8825      8828
      8828      8829      8828      8830      8828      8831      8831      8832
      8833      8834      8833      8835      8835      8836      8835      8837
      8835      8838      8838      8839      8838      8840      8838      8841
      8841      8842      8841      8843      8841      8844      8844      8845
      8844      8846      8844      8847      8847      8848      8847      8849
      8847      8850      8850      8851      8850      8852      8850      8853
      8853      8854      8853      8855      8853      8856      8856      8857
      8856      8858      8856      8859      8764      8766      8831      8833
      8808      8809      8860      8861      8860      8862      8860      8863
      8860      8864      8864      8865      8864      8866      8864      8867
      8867      8868      8867      8869      8867      8873      8875      8874
      8873      8870      8870      8874      8870      8871      8870      8872
      8875      8876      8875      8877      8875      8878      8878      8879
      8878      8886      8878      8880      8886      8887      8886      8888
      8886      8889      8880      8881      8881      8883      8881      8882
      8883      8884      8883      8885      8883      8895      8895      8896
      8895      8897      8895      8898      8898      8899      8898      8900
      8898      8901      8901      8902      8901      8903      8903      8904
      8903      8905      8905      8906      8905      8907      8905      8908
      8908      8909      8908      8910      8910      8911      8910      8912
      8912      8913      8912      8914      8912      8915      8915      8916
      8915      8917      8917      8918      8917      8919      8919      8920
      8919      8921      8919      8922      8922      8923      8922      8924
      8924      8925      8924      8926      8926      8927      8926      8928
      8926      8929      8929      8930      8929      8931      8929      8932
      8932      8933      8932      8934      8932      8935      8935      8936
      8935      8937      8935      8938      8938      8939      8938      8940
      8938      8941      8889      8890      8890      8892      8890      8891
      8892      8893      8892      8894      8892      8942      8942      8943
      8942      8944      8942      8945      8945      8946      8945      8947
      8945      8948      8948      8949      8948      8950      8948      8951
      8951      8952      8951      8953      8951      8954      8954      8955
      8954      8956      8954      8957      8957      8958      8957      8959
      8957      8960      8960      8961      8960      8962      8960      8963
      8963      8964      8963      8965      8963      8966      8966      8967
      8966      8968      8966      8969      8969      8970      8969      8971
      8969      8972      8972      8973      8972      8974      8972      8975
      8975      8976      8975      8977      8975      8978      8978      8979
      8978      8980      8978      8981      8981      8982      8981      8983
      8981      8984      8984      8985      8984      8986      8984      8987
      8987      8988      8987      8989      8987      8990      9066      9067
      9066      9068      9066      9069      9066      9063      9063      9064
      9063      9065      9063      9060      9060      9061      9060      9062
      9060      9057      9057      9058      9057      9059      9057      9054
      9054      9055      9054      9056      9054      9051      9051      9052
      9051      9053      9051      9048      9048      9049      9048      9050
      9048      9045      9045      9046      9045      9047      9045      9042
      9042      9043      9042      9044      9042      9039      9039      9040
      9039      9041      9039      9036      9036      9037      9036      9038
      9036      9033      9033      9034      9033      9035      9033      9030
      9030      9031      9030      9032      9030      9028      9028      9029
      9026      9027      9026      9022      9022      9023      9022      9024
      9024      9025      9022      9020      9020      9021      9020      9015
      9015      9016      9015      9017      9015      9013      9013      9010
      9014      9010      9011      9010      9012      9010      9014      9007
      9007      9008      9007      9009      9007      9004      9004      9005
      9004      9006      9004      8991      8991      9000      8991      8996
      8991      8992      9000      9001      9000      9002      9000      9003
      8996      8997      8996      8998      8996      8999      8992      8993
      8992      8994      8992      8995      9020      9018      9018      9019
      9018      9070      9070      9072      9072      9073      9072      9074
      9072      9075      9075      9076      9075      9077      9075      9078
      9078      9079      9078      9080      9078      9081      9081      9082
      9081      9083      9081      9084      9084      9085      9084      9086
      9084      9087      9087      9088      9087      9089      9087      9090
      9090      9091      9090      9092      9090      9093      9093      9094
      9095      9096      9095      9097      9097      9098      9097      9099
      9097      9100      9100      9101      9100      9102      9100      9103
      9103      9104      9103      9105      9103      9106      9106      9107
      9106      9108      9106      9109      9109      9110      9109      9111
      9109      9112      9112      9113      9112      9114      9112      9115
      9115      9116      9115      9117      9115      9118      9118      9119
      9118      9120      9118      9121      9026      9028      9093      9095
      9070      9071      9122      9124      9122      9123      9124      9125
      9122      9168      9168      9169      9168      9170      9168      9165
      9165      9166      9165      9167      9122      9126      9126      9127
      9126      9128      9126      9129      9129      9160      9160      9165
      9160      9161      9161      9162      9161      9163      9161      9164
      9129      9130      9130      9131      9130      9132      9132      9133
      9132      9134      9132      9135      9135      9136      9135      9158
      9158      9159      9158      9160      9135      9137      9137      9138
      9137      9147      9147      9152      9152      9153      9152      9154
      9152      9155      9155      9156      9155      9157      9155      9158
      9147      9148      9148      9149      9148      9150      9148      9151
      9137      9139      9139      9140      9139      9141      9139      9142
      9142      9143      9142      9144      9142      9145      9145      9146
      9145      9147      9145      9171      9171      9172      9171      9173
      9173      9174      9173      9175      9173      9176      9171      9177
      9177      9178      9177      9179      9177      9180      9180      9181
      9180      9182      9180      9183      9183      9184      9183      9185
      9183      9186      9186      9187      9186      9188      9188      9189
      9188      9190      9188      9191      9186      9192      9192      9193
      9192      9194      9192      9195      9196      9197      9196      9198
      9196      9199      9196      9200      9200      9201      9200      9202
      9200      9203      9203      9204      9203      9205      9203      9209
      9211      9210      9209      9206      9206      9210      9206      9207
      9206      9208      9211      9212      9211      9213      9211      9214
      9214      9215      9214      9222      9214      9216      9222      9223
      9222      9224      9222      9225      9216      9217      9217      9219
      9217      9218      9219      9220      9219      9221      9219      9231
      9231      9232      9231      9233      9231      9234      9234      9235
      9234      9236      9234      9237      9237      9238      9237      9239
      9239      9240      9239      9241      9241      9242      9241      9243
      9241      9244      9244      9245      9244      9246      9246      9247
      9246      9248      9248      9249      9248      9250      9248      9251
      9251      9252      9251      9253      9253      9254      9253      9255
      9255      9256      9255      9257      9255      9258      9258      9259
      9258      9260      9260      9261      9260      9262      9262      9263
      9262      9264      9262      9265      9265      9266      9265      9267
      9265      9268      9268      9269      9268      9270      9268      9271
      9271      9272      9271      9273      9271      9274      9274      9275
      9274      9276      9274      9277      9225      9226      9226      9228
      9226      9227      9228      9229      9228      9230      9228      9278
      9278      9279      9278      9280      9278      9281      9281      9282
      9281      9283      9281      9284      9284      9285      9284      9286
      9284      9287      9287      9288      9287      9289      9287      9290
      9290      9291      9290      9292      9290      9293      9293      9294
      9293      9295      9293      9296      9296      9297      9296      9298
      9296      9299      9299      9300      9299      9301      9299      9302
      9302      9303      9302      9304      9302      9305      9305      9306
      9305      9307      9305      9308      9308      9309      9308      9310
      9308      9311      9311      9312      9311      9313      9311      9314
      9314      9315      9314      9316      9314      9317      9317      9318
      9317      9319      9317      9320      9320      9321      9320      9322
      9320      9323      9323      9324      9323      9325      9323      9326
      9327      9328      9327      9329      9327      9330      9327      9331
      9331      9332      9331      9333      9331      9334      9334      9335
      9334      9336      9334      9340      9342      9341      9340      9337
      9337      9341      9337      9338      9337      9339      9342      9343
      9342      9344      9342      9345      9345      9346      9345      9353
      9345      9347      9353      9354      9353      9355      9353      9356
      9347      9348      9348      9350      9348      9349      9350      9351
      9350      9352      9350      9362      9362      9363      9362      9364
      9362      9365      9365      9366      9365      9367      9365      9368
      9368      9369      9368      9370      9368      9371      9371      9372
      9371      9373      9371      9374      9374      9375      9374      9376
      9374      9377      9377      9378      9377      9379      9377      9380
      9380      9381      9380      9382      9382      9383      9382      9384
      9384      9385      9384      9386      9384      9387      9387      9388
      9387      9389      9387      9390      9390      9391      9390      9392
      9390      9393      9393      9394      9393      9395      9393      9396
      9396      9397      9396      9398      9396      9399      9399      9400
      9399      9401      9399      9402      9402      9403      9402      9404
      9402      9405      9405      9406      9405      9407      9405      9408
      9356      9357      9357      9359      9357      9358      9359      9360
      9359      9361      9359      9409      9409      9410      9409      9411
      9409      9412      9412      9413      9412      9414      9412      9415
      9415      9416      9415      9417      9415      9418      9418      9419
      9418      9420      9418      9421      9421      9422      9421      9423
      9421      9424      9424      9425      9424      9426      9424      9427
      9427      9428      9427      9429      9427      9430      9430      9431
      9430      9432      9430      9433      9433      9434      9433      9435
      9433      9436      9436      9437      9436      9438      9436      9439
      9439      9440      9439      9441      9439      9442      9442      9443
      9442      9444      9442      9445      9445      9446      9445      9447
      9445      9448      9448      9449      9448      9450      9448      9451
      9451      9452      9451      9453      9451      9454      9454      9455
      9454      9456      9454      9457      9458      9462      9458      9466
      9458      9470      9462      9463      9462      9464      9462      9465
      9466      9467      9466      9468      9466      9469      9470      9471
      9470      9472      9470      9473      9458      9459      9459      9460
      9459      9461      9459      9474      9474      9475      9474      9476
      9474      9480      9481      9482      9480      9477      9477      9481
      9477      9478      9477      9479      9482      9483      9482      9484
      9482      9485      9485      9486      9485      9493      9485      9487
      9493      9494      9493      9495      9493      9496      9487      9488
      9488      9490      9488      9489      9490      9491      9490      9492
      9490      9502      9502      9503      9502      9504      9502      9505
      9505      9506      9505      9507      9505      9508      9508      9509
      9508      9510      9508      9511      9511      9512      9511      9513
      9511      9514      9514      9515      9514      9516      9514      9517
      9517      9518      9517      9519      9517      9520      9520      9521
      9520      9522      9522      9523      9522      9524      9524      9525
      9524      9526      9524      9527      9527      9528      9527      9529
      9527      9530      9530      9531      9530      9532      9530      9533
      9533      9534      9533      9535      9533      9536      9536      9537
      9536      9538      9536      9539      9539      9540      9539      9541
      9539      9542      9542      9543      9542      9544      9542      9545
      9545      9546      9545      9547      9545      9548      9496      9497
      9497      9499      9497      9498      9499      9500      9499      9501
      9499      9549      9549      9550      9549      9551      9549      9552
      9552      9553      9552      9554      9552      9555      9555      9556
      9555      9557      9555      9558      9558      9559      9558      9560
      9558      9561      9561      9562      9561      9563      9561      9564
      9564      9565      9564      9566      9564      9567      9567      9568
      9567      9569      9567      9570      9570      9571      9570      9572
      9570      9573      9573      9574      9573      9575      9573      9576
      9576      9577      9576      9578      9576      9579      9579      9580
      9579      9581      9579      9582      9582      9583      9582      9584
      9582      9585      9585      9586      9585      9587      9585      9588
      9588      9589      9588      9590      9588      9591      9592      9593
      9592      9594      9592      9595      9592      9596      9596      9597
      9596      9598      9596      9599      9599      9600      9599      9601
      9599      9605      9607      9606      9605      9602      9602      9606
      9602      9603      9602      9604      9607      9608      9607      9609
      9607      9610      9610      9611      9610      9618      9610      9612
      9618      9619      9618      9620      9618      9621      9612      9613
      9613      9615      9613      9614      9615      9616      9615      9617
      9615      9627      9627      9628      9627      9629      9627      9630
      9630      9631      9630      9632      9630      9633      9633      9634
      9633      9635      9633      9636      9636      9637      9636      9638
      9636      9639      9639      9640      9639      9641      9639      9642
      9642      9643      9642      9644      9642      9645      9645      9646
      9645      9647      9647      9648      9647      9649      9649      9650
      9649      9651      9649      9652      9652      9653      9652      9654
      9652      9655      9655      9656      9655      9657      9655      9658
      9658      9659      9658      9660      9658      9661      9661      9662
      9661      9663      9661      9664      9664      9665      9664      9666
      9664      9667      9667      9668      9667      9669      9667      9670
      9670      9671      9670      9672      9670      9673      9621      9622
      9622      9624      9622      9623      9624      9625      9624      9626
      9624      9674      9674      9675      9674      9676      9674      9677
      9677      9678      9677      9679      9677      9680      9680      9681
      9680      9682      9680      9683      9683      9684      9683      9685
      9683      9686      9686      9687      9686      9688      9686      9689
      9689      9690      9689      9691      9689      9692      9692      9693
      9692      9694      9692      9695      9695      9696      9695      9697
      9695      9698      9698      9699      9698      9700      9698      9701
      9701      9702      9701      9703      9701      9704      9704      9705
      9704      9706      9704      9707      9707      9708      9707      9709
      9707      9710      9710      9711      9710      9712      9710      9713
      9713      9714      9713      9715      9713      9716      9716      9717
      9716      9718      9716      9719      9719      9720      9719      9721
      9719      9722      9723      9727      9723      9731      9723      9735
      9727      9728      9727      9729      9727      9730      9731      9732
      9731      9733      9731      9734      9735      9736      9735      9737
      9735      9738      9723      9724      9724      9725      9724      9726
      9724      9739      9739      9740      9739      9741      9739      9745
      9746      9747      9745      9742      9742      9746      9742      9743
      9742      9744      9747      9748      9747      9749      9747      9750
      9750      9751      9750      9758      9750      9752      9758      9759
      9758      9760      9758      9761      9752      9753      9753      9755
      9753      9754      9755      9756      9755      9757      9755      9767
      9767      9768      9767      9769      9767      9770      9770      9771
      9770      9772      9770      9773      9773      9774      9773      9775
      9775      9776      9775      9777      9777      9778      9777      9779
      9777      9780      9780      9781      9780      9782      9782      9783
      9782      9784      9784      9785      9784      9786      9784      9787
      9787      9788      9787      9789      9789      9790      9789      9791
      9791      9792      9791      9793      9791      9794      9794      9795
      9794      9796      9796      9797      9796      9798      9798      9799
      9798      9800      9798      9801      9801      9802      9801      9803
      9801      9804      9804      9805      9804      9806      9804      9807
      9807      9808      9807      9809      9807      9810      9810      9811
      9810      9812      9810      9813      9761      9762      9762      9764
      9762      9763      9764      9765      9764      9766      9764      9814
      9814      9815      9814      9816      9814      9817      9817      9818
      9817      9819      9817      9820      9820      9821      9820      9822
      9820      9823      9823      9824      9823      9825      9823      9826
      9826      9827      9826      9828      9826      9829      9829      9830
      9829      9831      9829      9832      9832      9833      9832      9834
      9832      9835      9835      9836      9835      9837      9835      9838
      9838      9839      9838      9840      9838      9841      9841      9842
      9841      9843      9841      9844      9844      9845      9844      9846
      9844      9847      9847      9848      9847      9849      9847      9850
      9850      9851      9850      9852      9850      9853      9853      9854
      9853      9855      9853      9856      9856      9857      9856      9858
      9856      9859      9859      9860      9859      9861      9859      9862
      9863      9865      9863      9864      9865      9866      9863      9909
      9909      9910      9909      9911      9909      9906      9906      9907
      9906      9908      9863      9867      9867      9868      9867      9869
      9867      9870      9870      9901      9901      9906      9901      9902
      9902      9903      9902      9904      9902      9905      9870      9871
      9871      9872      9871      9873      9873      9874      9873      9875
      9873      9876      9876      9877      9876      9899      9899      9900
      9899      9901      9876      9878      9878      9879      9878      9888
      9888      9893      9893      9894      9893      9895      9893      9896
      9896      9897      9896      9898      9896      9899      9888      9889
      9889      9890      9889      9891      9889      9892      9878      9880
      9880      9881      9880      9882      9880      9883      9883      9884
      9883      9885      9883      9886      9886      9887      9886      9888
      9886      9912      9912      9913      9912      9914      9914      9915
      9914      9916      9914      9917      9912      9918      9918      9919
      9918      9920      9918      9921      9921      9922      9921      9923
      9921      9924      9924      9925      9924      9926      9924      9927
      9927      9928      9927      9929      9929      9930      9929      9931
      9929      9932      9927      9933      9933      9934      9933      9935
      9933      9936      9937      9938      9937      9942      9937      9946
      9938      9939      9938      9940      9938      9941      9942      9943
      9942      9944      9942      9945      9946      9947      9946      9948
      9946      9949      9937      9950      9950      9951      9950      9952
      9950      9953      9953      9954      9953      9955      9953      9959
      9960      9961      9959      9956      9956      9960      9956      9957
      9956      9958      9961      9962      9961      9963      9961      9964
      9964      9965      9964      9972      9964      9966      9972      9973
      9972      9974      9972      9975      9966      9967      9967      9969
      9967      9968      9969      9970      9969      9971      9969      9981
      9981      9982      9981      9983      9981      9984      9984      9985
      9984      9986      9984      9987      9987      9988      9987      9989
      9987      9990      9990      9991      9990      9992      9990      9993
      9993      9994      9993      9995      9993      9996      9996      9997
      9996      9998      9996      9999      9999     10000      9999     10001
     10001     10002     10001     10003     10003     10004     10003     10005
     10003     10006     10006     10007     10006     10008     10008     10009
     10008     10010     10010     10011     10010     10012     10010     10013
     10013     10014     10013     10015     10013     10016     10016     10017
     10016     10018     10016     10019     10019     10020     10019     10021
     10019     10022     10022     10023     10022     10024     10022     10025
      9975      9976      9976      9978      9976      9977      9978      9979
      9978      9980      9978     10026     10026     10027     10026     10028
     10026     10029     10029     10030     10029     10031     10029     10032
     10032     10033     10032     10034     10032     10035     10035     10036
     10035     10037     10035     10038     10038     10039     10038     10040
     10038     10041     10041     10042     10041     10043     10041     10044
     10044     10045     10044     10046     10044     10047     10047     10048
     10047     10049     10047     10050     10050     10051     10050     10052
     10050     10053     10053     10054     10053     10055     10053     10056
     10056     10057     10056     10058     10056     10059     10059     10060
     10059     10061     10059     10062     10062     10063     10062     10064
     10062     10065     10065     10066     10065     10067     10065     10068
     10068     10069     10068     10070     10068     10071     10071     10072
     10071     10073     10071     10074     10075     10077     10075     10076
     10077     10078     10075     10121     10121     10122     10121     10123
     10121     10118     10118     10119     10118     10120     10075     10079
     10079     10080     10079     10081     10079     10082     10082     10113
     10113     10118     10113     10114     10114     10115     10114     10116
     10114     10117     10082     10083     10083     10084     10083     10085
     10085     10086     10085     10087     10085     10088     10088     10089
     10088     10111     10111     10112     10111     10113     10088     10090
     10090     10091     10090     10100     10100     10105     10105     10106
     10105     10107     10105     10108     10108     10109     10108     10110
     10108     10111     10100     10101     10101     10102     10101     10103
     10101     10104     10090     10092     10092     10093     10092     10094
     10092     10095     10095     10096     10095     10097     10095     10098
     10098     10099     10098     10100     10098     10124     10124     10125
     10124     10126     10126     10127     10126     10128     10126     10129
     10124     10130     10130     10131     10130     10132     10130     10133
     10133     10134     10133     10135     10133     10136     10136     10137
     10136     10138     10136     10139     10139     10140     10139     10141
     10141     10142     10141     10143     10141     10144     10139     10145
     10145     10146     10145     10147     10145     10148     10149     10151
     10149     10150     10151     10152     10149     10195     10195     10196
     10195     10197     10195     10192     10192     10193     10192     10194
     10149     10153     10153     10154     10153     10155     10153     10156
     10156     10187     10187     10192     10187     10188     10188     10189
     10188     10190     10188     10191     10156     10157     10157     10158
     10157     10159     10159     10160     10159     10161     10159     10162
     10162     10163     10162     10185     10185     10186     10185     10187
     10162     10164     10164     10165     10164     10174     10174     10179
     10179     10180     10179     10181     10179     10182     10182     10183
     10182     10184     10182     10185     10174     10175     10175     10176
     10175     10177     10175     10178     10164     10166     10166     10167
     10166     10168     10166     10169     10169     10170     10169     10171
     10169     10172     10172     10173     10172     10174     10172     10198
     10198     10199     10198     10200     10200     10201     10200     10202
     10200     10203     10198     10204     10204     10205     10204     10206
     10204     10207     10207     10208     10207     10209     10207     10210
     10210     10211     10210     10212     10210     10213     10213     10214
     10213     10215     10215     10216     10215     10217     10215     10218
     10213     10219     10219     10220     10219     10221     10219     10222
     10223     10224     10223     10225     10223     10226     10223     10227
     10227     10228     10227     10229     10227     10230     10230     10231
     10230     10232     10230     10236     10238     10237     10236     10233
     10233     10237     10233     10234     10233     10235     10238     10239
     10238     10240     10238     10241     10241     10242     10241     10249
     10241     10243     10249     10250     10249     10251     10249     10252
     10243     10244     10244     10246     10244     10245     10246     10247
     10246     10248     10246     10258     10258     10259     10258     10260
     10258     10261     10261     10262     10261     10263     10261     10264
     10264     10265     10264     10266     10266     10267     10266     10268
     10268     10269     10268     10270     10268     10271     10271     10272
     10271     10273     10273     10274     10273     10275     10275     10276
     10275     10277     10275     10278     10278     10279     10278     10280
     10280     10281     10280     10282     10282     10283     10282     10284
     10282     10285     10285     10286     10285     10287     10287     10288
     10287     10289     10289     10290     10289     10291     10289     10292
     10292     10293     10292     10294     10292     10295     10295     10296
     10295     10297     10295     10298     10298     10299     10298     10300
     10298     10301     10301     10302     10301     10303     10301     10304
     10252     10253     10253     10255     10253     10254     10255     10256
     10255     10257     10255     10305     10305     10306     10305     10307
     10305     10308     10308     10309     10308     10310     10308     10311
     10311     10312     10311     10313     10311     10314     10314     10315
     10314     10316     10314     10317     10317     10318     10317     10319
     10317     10320     10320     10321     10320     10322     10320     10323
     10323     10324     10323     10325     10323     10326     10326     10327
     10326     10328     10326     10329     10329     10330     10329     10331
     10329     10332     10332     10333     10332     10334     10332     10335
     10335     10336     10335     10337     10335     10338     10338     10339
     10338     10340     10338     10341     10341     10342     10341     10343
     10341     10344     10344     10345     10344     10346     10344     10347
     10347     10348     10347     10349     10347     10350     10350     10351
     10350     10352     10350     10353     10354     10355     10354     10356
     10354     10357     10354     10358     10362     10360     10360     10358
     10360     10361     10358     10359     10358     10363     10371     10370
     10363     10364     10363     10365     10363     10369     10369     10366
     10366     10370     10366     10367     10366     10368     10371     10372
     10371     10373     10371     10374     10374     10375     10374     10382
     10374     10376     10382     10383     10382     10384     10382     10385
     10376     10377     10377     10379     10377     10378     10379     10380
     10379     10381     10379     10391     10391     10392     10391     10393
     10391     10394     10394     10395     10394     10396     10394     10397
     10397     10398     10397     10399     10399     10400     10399     10401
     10401     10402     10401     10403     10401     10404     10404     10405
     10404     10406     10406     10407     10406     10408     10408     10409
     10408     10410     10408     10411     10411     10412     10411     10413
     10413     10414     10413     10415     10415     10416     10415     10417
     10415     10418     10418     10419     10418     10420     10420     10421
     10420     10422     10422     10423     10422     10424     10422     10425
     10425     10426     10425     10427     10425     10428     10428     10429
     10428     10430     10428     10431     10431     10432     10431     10433
     10431     10434     10434     10435     10434     10436     10434     10437
     10385     10386     10386     10388     10386     10387     10388     10389
     10388     10390     10388     10438     10438     10439     10438     10440
     10438     10441     10441     10442     10441     10443     10441     10444
     10444     10445     10444     10446     10444     10447     10447     10448
     10447     10449     10447     10450     10450     10451     10450     10452
     10450     10453     10453     10454     10453     10455     10453     10456
     10456     10457     10456     10458     10456     10459     10459     10460
     10459     10461     10459     10462     10462     10463     10462     10464
     10462     10465     10465     10466     10465     10467     10465     10468
     10468     10469     10468     10470     10468     10471     10471     10472
     10471     10473     10471     10474     10474     10475     10474     10476
     10474     10477     10477     10478     10477     10479     10477     10480
     10480     10481     10480     10482     10480     10483     10483     10484
     10483     10485     10483     10486     10487     10488     10487     10489
     10487     10490     10487     10491     10495     10493     10493     10491
     10493     10494     10491     10492     10491     10496     10504     10503
     10496     10497     10496     10498     10496     10502     10502     10499
     10499     10503     10499     10500     10499     10501     10504     10505
     10504     10506     10504     10507     10507     10508     10507     10515
     10507     10509     10515     10516     10515     10517     10515     10518
     10509     10510     10510     10512     10510     10511     10512     10513
     10512     10514     10512     10524     10524     10525     10524     10526
     10524     10527     10527     10528     10527     10529     10527     10530
     10530     10531     10530     10532     10532     10533     10532     10534
     10534     10535     10534     10536     10534     10537     10537     10538
     10537     10539     10539     10540     10539     10541     10541     10542
     10541     10543     10541     10544     10544     10545     10544     10546
     10546     10547     10546     10548     10548     10549     10548     10550
     10548     10551     10551     10552     10551     10553     10553     10554
     10553     10555     10555     10556     10555     10557     10555     10558
     10558     10559     10558     10560     10558     10561     10561     10562
     10561     10563     10561     10564     10564     10565     10564     10566
     10564     10567     10567     10568     10567     10569     10567     10570
     10518     10519     10519     10521     10519     10520     10521     10522
     10521     10523     10521     10571     10571     10572     10571     10573
     10571     10574     10574     10575     10574     10576     10574     10577
     10577     10578     10577     10579     10577     10580     10580     10581
     10580     10582     10580     10583     10583     10584     10583     10585
     10583     10586     10586     10587     10586     10588     10586     10589
     10589     10590     10589     10591     10589     10592     10592     10593
     10592     10594     10592     10595     10595     10596     10595     10597
     10595     10598     10598     10599     10598     10600     10598     10601
     10601     10602     10601     10603     10601     10604     10604     10605
     10604     10606     10604     10607     10607     10608     10607     10609
     10607     10610     10610     10611     10610     10612     10610     10613
     10613     10614     10613     10615     10613     10616     10616     10617
     10616     10618     10616     10619     10620     10622     10620     10621
     10622     10623     10620     10666     10666     10667     10666     10668
     10666     10663     10663     10664     10663     10665     10620     10624
     10624     10625     10624     10626     10624     10627     10627     10658
     10658     10663     10658     10659     10659     10660     10659     10661
     10659     10662     10627     10628     10628     10629     10628     10630
     10630     10631     10630     10632     10630     10633     10633     10634
     10633     10656     10656     10657     10656     10658     10633     10635
     10635     10636     10635     10645     10645     10650     10650     10651
     10650     10652     10650     10653     10653     10654     10653     10655
     10653     10656     10645     10646     10646     10647     10646     10648
     10646     10649     10635     10637     10637     10638     10637     10639
     10637     10640     10640     10641     10640     10642     10640     10643
     10643     10644     10643     10645     10643     10669     10669     10670
     10669     10671     10671     10672     10671     10673     10671     10674
     10669     10675     10675     10676     10675     10677     10675     10678
     10678     10679     10678     10680     10678     10681     10681     10682
     10681     10683     10681     10684     10684     10685     10684     10686
     10686     10687     10686     10688     10686     10689     10684     10690
     10690     10691     10690     10692     10690     10693     10694     10696
     10694     10695     10696     10697     10694     10740     10740     10741
     10740     10742     10740     10737     10737     10738     10737     10739
     10694     10698     10698     10699     10698     10700     10698     10701
     10701     10732     10732     10737     10732     10733     10733     10734
     10733     10735     10733     10736     10701     10702     10702     10703
     10702     10704     10704     10705     10704     10706     10704     10707
     10707     10708     10707     10730     10730     10731     10730     10732
     10707     10709     10709     10710     10709     10719     10719     10724
     10724     10725     10724     10726     10724     10727     10727     10728
     10727     10729     10727     10730     10719     10720     10720     10721
     10720     10722     10720     10723     10709     10711     10711     10712
     10711     10713     10711     10714     10714     10715     10714     10716
     10714     10717     10717     10718     10717     10719     10717     10743
     10743     10744     10743     10745     10745     10746     10745     10747
     10745     10748     10743     10749     10749     10750     10749     10751
     10749     10752     10752     10753     10752     10754     10752     10755
     10755     10756     10755     10757     10755     10758     10758     10759
     10758     10760     10760     10761     10760     10762     10760     10763
     10758     10764     10764     10765     10764     10766     10764     10767
     10768     10769     10768     10770     10768     10771     10768     10772
     10772     10773     10772     10774     10772     10775     10775     10776
     10775     10777     10775     10781     10783     10782     10781     10778
     10778     10782     10778     10779     10778     10780     10783     10784
     10783     10785     10783     10786     10786     10787     10786     10794
     10786     10788     10794     10795     10794     10796     10794     10797
     10788     10789     10789     10791     10789     10790     10791     10792
     10791     10793     10791     10803     10803     10804     10803     10805
     10803     10806     10806     10807     10806     10808     10806     10809
     10809     10810     10809     10811     10809     10812     10812     10813
     10812     10814     10812     10815     10815     10816     10815     10817
     10815     10818     10818     10819     10818     10820     10818     10821
     10821     10822     10821     10823     10823     10824     10823     10825
     10825     10826     10825     10827     10825     10828     10828     10829
     10828     10830     10828     10831     10831     10832     10831     10833
     10831     10834     10834     10835     10834     10836     10834     10837
     10837     10838     10837     10839     10837     10840     10840     10841
     10840     10842     10840     10843     10843     10844     10843     10845
     10843     10846     10846     10847     10846     10848     10846     10849
     10797     10798     10798     10800     10798     10799     10800     10801
     10800     10802     10800     10850     10850     10851     10850     10852
     10850     10853     10853     10854     10853     10855     10853     10856
     10856     10857     10856     10858     10856     10859     10859     10860
     10859     10861     10859     10862     10862     10863     10862     10864
     10862     10865     10865     10866     10865     10867     10865     10868
     10868     10869     10868     10870     10868     10871     10871     10872
     10871     10873     10871     10874     10874     10875     10874     10876
     10874     10877     10877     10878     10877     10879     10877     10880
     10880     10881     10880     10882     10880     10883     10883     10884
     10883     10885     10883     10886     10886     10887     10886     10888
     10886     10889     10889     10890     10889     10891     10889     10892
     10892     10893     10892     10894     10892     10895     10895     10896
     10895     10897     10895     10898     10974     10975     10974     10976
     10974     10977     10974     10971     10971     10972     10971     10973
     10971     10968     10968     10969     10968     10970     10968     10965
     10965     10966     10965     10967     10965     10962     10962     10963
     10962     10964     10962     10959     10959     10960     10959     10961
     10959     10956     10956     10957     10956     10958     10956     10953
     10953     10954     10953     10955     10953     10950     10950     10951
     10950     10952     10950     10947     10947     10948     10947     10949
     10947     10944     10944     10945     10944     10946     10944     10941
     10941     10942     10941     10943     10941     10938     10938     10939
     10938     10940     10938     10936     10936     10937     10934     10935
     10934     10930     10930     10931     10930     10932     10932     10933
     10930     10928     10928     10929     10928     10923     10923     10924
     10923     10925     10923     10921     10921     10918     10922     10918
     10919     10918     10920     10918     10922     10915     10915     10916
     10915     10917     10915     10912     10912     10913     10912     10914
     10912     10899     10899     10908     10899     10904     10899     10900
     10908     10909     10908     10910     10908     10911     10904     10905
     10904     10906     10904     10907     10900     10901     10900     10902
     10900     10903     10928     10926     10926     10927     10926     10978
     10978     10980     10980     10981     10980     10982     10980     10983
     10983     10984     10983     10985     10983     10986     10986     10987
     10986     10988     10986     10989     10989     10990     10989     10991
     10989     10992     10992     10993     10992     10994     10992     10995
     10995     10996     10995     10997     10995     10998     10998     10999
     10998     11000     10998     11001     11001     11002     11003     11004
     11003     11005     11005     11006     11005     11007     11005     11008
     11008     11009     11008     11010     11008     11011     11011     11012
     11011     11013     11011     11014     11014     11015     11014     11016
     11014     11017     11017     11018     11017     11019     11017     11020
     11020     11021     11020     11022     11020     11023     11023     11024
     11023     11025     11023     11026     11026     11027     11026     11028
     11026     11029     10934     10936     11001     11003     10978     10979
     11105     11106     11105     11107     11105     11108     11105     11102
     11102     11103     11102     11104     11102     11099     11099     11100
     11099     11101     11099     11096     11096     11097     11096     11098
     11096     11093     11093     11094     11093     11095     11093     11090
     11090     11091     11090     11092     11090     11087     11087     11088
     11087     11089     11087     11084     11084     11085     11084     11086
     11084     11081     11081     11082     11081     11083     11081     11078
     11078     11079     11078     11080     11078     11075     11075     11076
     11075     11077     11075     11072     11072     11073     11072     11074
     11072     11069     11069     11070     11069     11071     11069     11067
     11067     11068     11065     11066     11065     11061     11061     11062
     11061     11063     11063     11064     11061     11059     11059     11060
     11059     11054     11054     11055     11054     11056     11054     11052
     11052     11049     11053     11049     11050     11049     11051     11049
     11053     11046     11046     11047     11046     11048     11046     11043
     11043     11044     11043     11045     11043     11030     11030     11039
     11030     11035     11030     11031     11039     11040     11039     11041
     11039     11042     11035     11036     11035     11037     11035     11038
     11031     11032     11031     11033     11031     11034     11059     11057
     11057     11058     11057     11109     11109     11111     11111     11112
     11111     11113     11111     11114     11114     11115     11114     11116
     11114     11117     11117     11118     11117     11119     11117     11120
     11120     11121     11120     11122     11120     11123     11123     11124
     11123     11125     11123     11126     11126     11127     11126     11128
     11126     11129     11129     11130     11129     11131     11129     11132
     11132     11133     11134     11135     11134     11136     11136     11137
     11136     11138     11136     11139     11139     11140     11139     11141
     11139     11142     11142     11143     11142     11144     11142     11145
     11145     11146     11145     11147     11145     11148     11148     11149
     11148     11150     11148     11151     11151     11152     11151     11153
     11151     11154     11154     11155     11154     11156     11154     11157
     11157     11158     11157     11159     11157     11160     11065     11067
     11132     11134     11109     11110     11236     11237     11236     11238
     11236     11239     11236     11233     11233     11234     11233     11235
     11233     11230     11230     11231     11230     11232     11230     11227
     11227     11228     11227     11229     11227     11224     11224     11225
     11224     11226     11224     11221     11221     11222     11221     11223
     11221     11218     11218     11219     11218     11220     11218     11215
     11215     11216     11215     11217     11215     11212     11212     11213
     11212     11214     11212     11209     11209     11210     11209     11211
     11209     11206     11206     11207     11206     11208     11206     11203
     11203     11204     11203     11205     11203     11200     11200     11201
     11200     11202     11200     11198     11198     11199     11196     11197
     11196     11192     11192     11193     11192     11194     11194     11195
     11192     11190     11190     11191     11190     11185     11185     11186
     11185     11187     11185     11183     11183     11180     11184     11180
     11181     11180     11182     11180     11184     11177     11177     11178
     11177     11179     11177     11174     11174     11175     11174     11176
     11174     11161     11161     11170     11161     11166     11161     11162
     11170     11171     11170     11172     11170     11173     11166     11167
     11166     11168     11166     11169     11162     11163     11162     11164
     11162     11165     11190     11188     11188     11189     11188     11240
     11240     11242     11242     11243     11242     11244     11242     11245
     11245     11246     11245     11247     11245     11248     11248     11249
     11248     11250     11248     11251     11251     11252     11251     11253
     11251     11254     11254     11255     11254     11256     11254     11257
     11257     11258     11257     11259     11257     11260     11260     11261
     11260     11262     11260     11263     11263     11264     11265     11266
     11265     11267     11267     11268     11267     11269     11267     11270
     11270     11271     11270     11272     11270     11273     11273     11274
     11273     11275     11273     11276     11276     11277     11276     11278
     11276     11279     11279     11280     11279     11281     11279     11282
     11282     11283     11282     11284     11282     11285     11285     11286
     11285     11287     11285     11288     11288     11289     11288     11290
     11288     11291     11196     11198     11263     11265     11240     11241
     11292     11294     11292     11293     11294     11295     11292     11338
     11338     11339     11338     11340     11338     11335     11335     11336
     11335     11337     11292     11296     11296     11297     11296     11298
     11296     11299     11299     11330     11330     11335     11330     11331
     11331     11332     11331     11333     11331     11334     11299     11300
     11300     11301     11300     11302     11302     11303     11302     11304
     11302     11305     11305     11306     11305     11328     11328     11329
     11328     11330     11305     11307     11307     11308     11307     11317
     11317     11322     11322     11323     11322     11324     11322     11325
     11325     11326     11325     11327     11325     11328     11317     11318
     11318     11319     11318     11320     11318     11321     11307     11309
     11309     11310     11309     11311     11309     11312     11312     11313
     11312     11314     11312     11315     11315     11316     11315     11317
     11315     11341     11341     11342     11341     11343     11343     11344
     11343     11345     11343     11346     11341     11347     11347     11348
     11347     11349     11347     11350     11350     11351     11350     11352
     11350     11353     11353     11354     11353     11355     11353     11356
     11356     11357     11356     11358     11358     11359     11358     11360
     11358     11361     11356     11362     11362     11363     11362     11364
     11362     11365     11366     11367     11366     11371     11366     11375
     11367     11368     11367     11369     11367     11370     11371     11372
     11371     11373     11371     11374     11375     11376     11375     11377
     11375     11378     11366     11379     11379     11380     11379     11381
     11379     11382     11382     11383     11382     11384     11382     11388
     11389     11390     11388     11385     11385     11389     11385     11386
     11385     11387     11390     11391     11390     11392     11390     11393
     11393     11394     11393     11401     11393     11395     11401     11402
     11401     11403     11401     11404     11395     11396     11396     11398
     11396     11397     11398     11399     11398     11400     11398     11410
     11410     11411     11410     11412     11410     11413     11413     11414
     11413     11415     11413     11416     11416     11417     11416     11418
     11416     11419     11419     11420     11419     11421     11419     11422
     11422     11423     11422     11424     11422     11425     11425     11426
     11425     11427     11425     11428     11428     11429     11428     11430
     11430     11431     11430     11432     11432     11433     11432     11434
     11432     11435     11435     11436     11435     11437     11437     11438
     11437     11439     11439     11440     11439     11441     11439     11442
     11442     11443     11442     11444     11442     11445     11445     11446
     11445     11447     11445     11448     11448     11449     11448     11450
     11448     11451     11451     11452     11451     11453     11451     11454
     11404     11405     11405     11407     11405     11406     11407     11408
     11407     11409     11407     11455     11455     11456     11455     11457
     11455     11458     11458     11459     11458     11460     11458     11461
     11461     11462     11461     11463     11461     11464     11464     11465
     11464     11466     11464     11467     11467     11468     11467     11469
     11467     11470     11470     11471     11470     11472     11470     11473
     11473     11474     11473     11475     11473     11476     11476     11477
     11476     11478     11476     11479     11479     11480     11479     11481
     11479     11482     11482     11483     11482     11484     11482     11485
     11485     11486     11485     11487     11485     11488     11488     11489
     11488     11490     11488     11491     11491     11492     11491     11493
     11491     11494     11494     11495     11494     11496     11494     11497
     11497     11498     11497     11499     11497     11500     11500     11501
     11500     11502     11500     11503     11504     11505     11504     11509
     11504     11513     11505     11506     11505     11507     11505     11508
     11509     11510     11509     11511     11509     11512     11513     11514
     11513     11515     11513     11516     11504     11517     11517     11518
     11517     11519     11517     11520     11520     11521     11520     11522
     11520     11526     11527     11528     11526     11523     11523     11527
     11523     11524     11523     11525     11528     11529     11528     11530
     11528     11531     11531     11532     11531     11539     11531     11533
     11539     11540     11539     11541     11539     11542     11533     11534
     11534     11536     11534     11535     11536     11537     11536     11538
     11536     11548     11548     11549     11548     11550     11548     11551
     11551     11552     11551     11553     11551     11554     11554     11555
     11554     11556     11554     11557     11557     11558     11557     11559
     11557     11560     11560     11561     11560     11562     11560     11563
     11563     11564     11563     11565     11563     11566     11566     11567
     11566     11568     11568     11569     11568     11570     11570     11571
     11570     11572     11570     11573     11573     11574     11573     11575
     11575     11576     11575     11577     11577     11578     11577     11579
     11577     11580     11580     11581     11580     11582     11580     11583
     11583     11584     11583     11585     11583     11586     11586     11587
     11586     11588     11586     11589     11589     11590     11589     11591
     11589     11592     11542     11543     11543     11545     11543     11544
     11545     11546     11545     11547     11545     11593     11593     11594
     11593     11595     11593     11596     11596     11597     11596     11598
     11596     11599     11599     11600     11599     11601     11599     11602
     11602     11603     11602     11604     11602     11605     11605     11606
     11605     11607     11605     11608     11608     11609     11608     11610
     11608     11611     11611     11612     11611     11613     11611     11614
     11614     11615     11614     11616     11614     11617     11617     11618
     11617     11619     11617     11620     11620     11621     11620     11622
     11620     11623     11623     11624     11623     11625     11623     11626
     11626     11627     11626     11628     11626     11629     11629     11630
     11629     11631     11629     11632     11632     11633     11632     11634
     11632     11635     11635     11636     11635     11637     11635     11638
     11638     11639     11638     11640     11638     11641     11642     11644
     11642     11643     11644     11645     11642     11688     11688     11689
     11688     11690     11688     11685     11685     11686     11685     11687
     11642     11646     11646     11647     11646     11648     11646     11649
     11649     11680     11680     11685     11680     11681     11681     11682
     11681     11683     11681     11684     11649     11650     11650     11651
     11650     11652     11652     11653     11652     11654     11652     11655
     11655     11656     11655     11678     11678     11679     11678     11680
     11655     11657     11657     11658     11657     11667     11667     11672
     11672     11673     11672     11674     11672     11675     11675     11676
     11675     11677     11675     11678     11667     11668     11668     11669
     11668     11670     11668     11671     11657     11659     11659     11660
     11659     11661     11659     11662     11662     11663     11662     11664
     11662     11665     11665     11666     11665     11667     11665     11691
     11691     11692     11691     11693     11693     11694     11693     11695
     11693     11696     11691     11697     11697     11698     11697     11699
     11697     11700     11700     11701     11700     11702     11700     11703
     11703     11704     11703     11705     11703     11706     11706     11707
     11706     11708     11708     11709     11708     11710     11708     11711
     11706     11712     11712     11713     11712     11714     11712     11715
     11716     11720     11716     11724     11716     11728     11720     11721
     11720     11722     11720     11723     11724     11725     11724     11726
     11724     11727     11728     11729     11728     11730     11728     11731
     11716     11717     11717     11718     11717     11719     11717     11732
     11732     11733     11732     11734     11732     11738     11739     11740
     11738     11735     11735     11739     11735     11736     11735     11737
     11740     11741     11740     11742     11740     11743     11743     11744
     11743     11751     11743     11745     11751     11752     11751     11753
     11751     11754     11745     11746     11746     11748     11746     11747
     11748     11749     11748     11750     11748     11760     11760     11761
     11760     11762     11760     11763     11763     11764     11763     11765
     11763     11766     11766     11767     11766     11768     11766     11769
     11769     11770     11769     11771     11769     11772     11772     11773
     11772     11774     11772     11775     11775     11776     11775     11777
     11775     11778     11778     11779     11778     11780     11780     11781
     11780     11782     11782     11783     11782     11784     11782     11785
     11785     11786     11785     11787     11785     11788     11788     11789
     11788     11790     11788     11791     11791     11792     11791     11793
     11791     11794     11794     11795     11794     11796     11794     11797
     11797     11798     11797     11799     11797     11800     11800     11801
     11800     11802     11800     11803     11803     11804     11803     11805
     11803     11806     11754     11755     11755     11757     11755     11756
     11757     11758     11757     11759     11757     11807     11807     11808
     11807     11809     11807     11810     11810     11811     11810     11812
     11810     11813     11813     11814     11813     11815     11813     11816
     11816     11817     11816     11818     11816     11819     11819     11820
     11819     11821     11819     11822     11822     11823     11822     11824
     11822     11825     11825     11826     11825     11827     11825     11828
     11828     11829     11828     11830     11828     11831     11831     11832
     11831     11833     11831     11834     11834     11835     11834     11836
     11834     11837     11837     11838     11837     11839     11837     11840
     11840     11841     11840     11842     11840     11843     11843     11844
     11843     11845     11843     11846     11846     11847     11846     11848
     11846     11849     11850     11851     11850     11852     11850     11853
     11850     11854     11854     11855     11854     11856     11854     11857
     11857     11858     11857     11859     11857     11863     11865     11864
     11863     11860     11860     11864     11860     11861     11860     11862
     11865     11866     11865     11867     11865     11868     11868     11869
     11868     11876     11868     11870     11876     11877     11876     11878
     11876     11879     11870     11871     11871     11873     11871     11872
     11873     11874     11873     11875     11873     11885     11885     11886
     11885     11887     11885     11888     11888     11889     11888     11890
     11888     11891     11891     11892     11891     11893     11893     11894
     11893     11895     11895     11896     11895     11897     11895     11898
     11898     11899     11898     11900     11900     11901     11900     11902
     11902     11903     11902     11904     11902     11905     11905     11906
     11905     11907     11907     11908     11907     11909     11909     11910
     11909     11911     11909     11912     11912     11913     11912     11914
     11914     11915     11914     11916     11916     11917     11916     11918
     11916     11919     11919     11920     11919     11921     11919     11922
     11922     11923     11922     11924     11922     11925     11925     11926
     11925     11927     11925     11928     11928     11929     11928     11930
     11928     11931     11879     11880     11880     11882     11880     11881
     11882     11883     11882     11884     11882     11932     11932     11933
     11932     11934     11932     11935     11935     11936     11935     11937
     11935     11938     11938     11939     11938     11940     11938     11941
     11941     11942     11941     11943     11941     11944     11944     11945
     11944     11946     11944     11947     11947     11948     11947     11949
     11947     11950     11950     11951     11950     11952     11950     11953
     11953     11954     11953     11955     11953     11956     11956     11957
     11956     11958     11956     11959     11959     11960     11959     11961
     11959     11962     11962     11963     11962     11964     11962     11965
     11965     11966     11965     11967     11965     11968     11968     11969
     11968     11970     11968     11971     11971     11972     11971     11973
     11971     11974     11974     11975     11974     11976     11974     11977
     11977     11978     11977     11979     11977     11980     12056     12057
     12056     12058     12056     12059     12056     12053     12053     12054
     12053     12055     12053     12050     12050     12051     12050     12052
     12050     12047     12047     12048     12047     12049     12047     12044
     12044     12045     12044     12046     12044     12041     12041     12042
     12041     12043     12041     12038     12038     12039     12038     12040
     12038     12035     12035     12036     12035     12037     12035     12032
     12032     12033     12032     12034     12032     12029     12029     12030
     12029     12031     12029     12026     12026     12027     12026     12028
     12026     12023     12023     12024     12023     12025     12023     12020
     12020     12021     12020     12022     12020     12018     12018     12019
     12016     12017     12016     12012     12012     12013     12012     12014
     12014     12015     12012     12010     12010     12011     12010     12005
     12005     12006     12005     12007     12005     12003     12003     12000
     12004     12000     12001     12000     12002     12000     12004     11997
     11997     11998     11997     11999     11997     11994     11994     11995
     11994     11996     11994     11981     11981     11990     11981     11986
     11981     11982     11990     11991     11990     11992     11990     11993
     11986     11987     11986     11988     11986     11989     11982     11983
     11982     11984     11982     11985     12010     12008     12008     12009
     12008     12060     12060     12062     12062     12063     12062     12064
     12062     12065     12065     12066     12065     12067     12065     12068
     12068     12069     12068     12070     12068     12071     12071     12072
     12071     12073     12071     12074     12074     12075     12074     12076
     12074     12077     12077     12078     12077     12079     12077     12080
     12080     12081     12080     12082     12080     12083     12083     12084
     12085     12086     12085     12087     12087     12088     12087     12089
     12087     12090     12090     12091     12090     12092     12090     12093
     12093     12094     12093     12095     12093     12096     12096     12097
     12096     12098     12096     12099     12099     12100     12099     12101
     12099     12102     12102     12103     12102     12104     12102     12105
     12105     12106     12105     12107     12105     12108     12108     12109
     12108     12110     12108     12111     12016     12018     12083     12085
     12060     12061     12112     12114     12112     12113     12114     12115
     12112     12158     12158     12159     12158     12160     12158     12155
     12155     12156     12155     12157     12112     12116     12116     12117
     12116     12118     12116     12119     12119     12150     12150     12155
     12150     12151     12151     12152     12151     12153     12151     12154
     12119     12120     12120     12121     12120     12122     12122     12123
     12122     12124     12122     12125     12125     12126     12125     12148
     12148     12149     12148     12150     12125     12127     12127     12128
     12127     12137     12137     12142     12142     12143     12142     12144
     12142     12145     12145     12146     12145     12147     12145     12148
     12137     12138     12138     12139     12138     12140     12138     12141
     12127     12129     12129     12130     12129     12131     12129     12132
     12132     12133     12132     12134     12132     12135     12135     12136
     12135     12137     12135     12161     12161     12162     12161     12163
     12163     12164     12163     12165     12163     12166     12161     12167
     12167     12168     12167     12169     12167     12170     12170     12171
     12170     12172     12170     12173     12173     12174     12173     12175
     12173     12176     12176     12177     12176     12178     12178     12179
     12178     12180     12178     12181     12176     12182     12182     12183
     12182     12184     12182     12185     12186     12188     12186     12187
     12188     12189     12186     12232     12232     12233     12232     12234
     12232     12229     12229     12230     12229     12231     12186     12190
     12190     12191     12190     12192     12190     12193     12193     12224
     12224     12229     12224     12225     12225     12226     12225     12227
     12225     12228     12193     12194     12194     12195     12194     12196
     12196     12197     12196     12198     12196     12199     12199     12200
     12199     12222     12222     12223     12222     12224     12199     12201
     12201     12202     12201     12211     12211     12216     12216     12217
     12216     12218     12216     12219     12219     12220     12219     12221
     12219     12222     12211     12212     12212     12213     12212     12214
     12212     12215     12201     12203     12203     12204     12203     12205
     12203     12206     12206     12207     12206     12208     12206     12209
     12209     12210     12209     12211     12209     12235     12235     12236
     12235     12237     12237     12238     12237     12239     12237     12240
     12235     12241     12241     12242     12241     12243     12241     12244
     12244     12245     12244     12246     12244     12247     12247     12248
     12247     12249     12247     12250     12250     12251     12250     12252
     12252     12253     12252     12254     12252     12255     12250     12256
     12256     12257     12256     12258     12256     12259     12260     12261
     12260     12262     12260     12263     12260     12264     12268     12266
     12266     12264     12266     12267     12264     12265     12264     12269
     12277     12276     12269     12270     12269     12271     12269     12275
     12275     12272     12272     12276     12272     12273     12272     12274
     12277     12278     12277     12279     12277     12280     12280     12281
     12280     12288     12280     12282     12288     12289     12288     12290
     12288     12291     12282     12283     12283     12285     12283     12284
     12285     12286     12285     12287     12285     12297     12297     12298
     12297     12299     12297     12300     12300     12301     12300     12302
     12300     12303     12303     12304     12303     12305     12305     12306
     12305     12307     12307     12308     12307     12309     12307     12310
     12310     12311     12310     12312     12312     12313     12312     12314
     12314     12315     12314     12316     12314     12317     12317     12318
     12317     12319     12319     12320     12319     12321     12321     12322
     12321     12323     12321     12324     12324     12325     12324     12326
     12326     12327     12326     12328     12328     12329     12328     12330
     12328     12331     12331     12332     12331     12333     12331     12334
     12334     12335     12334     12336     12334     12337     12337     12338
     12337     12339     12337     12340     12340     12341     12340     12342
     12340     12343     12291     12292     12292     12294     12292     12293
     12294     12295     12294     12296     12294     12344     12344     12345
     12344     12346     12344     12347     12347     12348     12347     12349
     12347     12350     12350     12351     12350     12352     12350     12353
     12353     12354     12353     12355     12353     12356     12356     12357
     12356     12358     12356     12359     12359     12360     12359     12361
     12359     12362     12362     12363     12362     12364     12362     12365
     12365     12366     12365     12367     12365     12368     12368     12369
     12368     12370     12368     12371     12371     12372     12371     12373
     12371     12374     12374     12375     12374     12376     12374     12377
     12377     12378     12377     12379     12377     12380     12380     12381
     12380     12382     12380     12383     12383     12384     12383     12385
     12383     12386     12386     12387     12386     12388     12386     12389
     12389     12390     12389     12391     12389     12392     12393     12397
     12393     12401     12393     12405     12397     12398     12397     12399
     12397     12400     12401     12402     12401     12403     12401     12404
     12405     12406     12405     12407     12405     12408     12393     12394
     12394     12395     12394     12396     12394     12409     12409     12410
     12409     12411     12409     12415     12416     12417     12415     12412
     12412     12416     12412     12413     12412     12414     12417     12418
     12417     12419     12417     12420     12420     12421     12420     12428
     12420     12422     12428     12429     12428     12430     12428     12431
     12422     12423     12423     12425     12423     12424     12425     12426
     12425     12427     12425     12437     12437     12438     12437     12439
     12437     12440     12440     12441     12440     12442     12440     12443
     12443     12444     12443     12445     12443     12446     12446     12447
     12446     12448     12446     12449     12449     12450     12449     12451
     12449     12452     12452     12453     12452     12454     12452     12455
     12455     12456     12455     12457     12457     12458     12457     12459
     12459     12460     12459     12461     12459     12462     12462     12463
     12462     12464     12462     12465     12465     12466     12465     12467
     12465     12468     12468     12469     12468     12470     12468     12471
     12471     12472     12471     12473     12471     12474     12474     12475
     12474     12476     12474     12477     12477     12478     12477     12479
     12477     12480     12480     12481     12480     12482     12480     12483
     12431     12432     12432     12434     12432     12433     12434     12435
     12434     12436     12434     12484     12484     12485     12484     12486
     12484     12487     12487     12488     12487     12489     12487     12490
     12490     12491     12490     12492     12490     12493     12493     12494
     12493     12495     12493     12496     12496     12497     12496     12498
     12496     12499     12499     12500     12499     12501     12499     12502
     12502     12503     12502     12504     12502     12505     12505     12506
     12505     12507     12505     12508     12508     12509     12508     12510
     12508     12511     12511     12512     12511     12513     12511     12514
     12514     12515     12514     12516     12514     12517     12517     12518
     12517     12519     12517     12520     12520     12521     12520     12522
     12520     12523     12523     12524     12523     12525     12523     12526
     12527     12529     12527     12528     12529     12530     12527     12573
     12573     12574     12573     12575     12573     12570     12570     12571
     12570     12572     12527     12531     12531     12532     12531     12533
     12531     12534     12534     12565     12565     12570     12565     12566
     12566     12567     12566     12568     12566     12569     12534     12535
     12535     12536     12535     12537     12537     12538     12537     12539
     12537     12540     12540     12541     12540     12563     12563     12564
     12563     12565     12540     12542     12542     12543     12542     12552
     12552     12557     12557     12558     12557     12559     12557     12560
     12560     12561     12560     12562     12560     12563     12552     12553
     12553     12554     12553     12555     12553     12556     12542     12544
     12544     12545     12544     12546     12544     12547     12547     12548
     12547     12549     12547     12550     12550     12551     12550     12552
     12550     12576     12576     12577     12576     12578     12578     12579
     12578     12580     12578     12581     12576     12582     12582     12583
     12582     12584     12582     12585     12585     12586     12585     12587
     12585     12588     12588     12589     12588     12590     12588     12591
     12591     12592     12591     12593     12593     12594     12593     12595
     12593     12596     12591     12597     12597     12598     12597     12599
     12597     12600     12601     12602     12601     12603     12601     12604
     12601     12605     12605     12606     12605     12607     12605     12608
     12608     12609     12608     12610     12608     12614     12616     12615
     12614     12611     12611     12615     12611     12612     12611     12613
     12616     12617     12616     12618     12616     12619     12619     12620
     12619     12627     12619     12621     12627     12628     12627     12629
     12627     12630     12621     12622     12622     12624     12622     12623
     12624     12625     12624     12626     12624     12636     12636     12637
     12636     12638     12636     12639     12639     12640     12639     12641
     12639     12642     12642     12643     12642     12644     12644     12645
     12644     12646     12646     12647     12646     12648     12646     12649
     12649     12650     12649     12651     12651     12652     12651     12653
     12653     12654     12653     12655     12653     12656     12656     12657
     12656     12658     12658     12659     12658     12660     12660     12661
     12660     12662     12660     12663     12663     12664     12663     12665
     12665     12666     12665     12667     12667     12668     12667     12669
     12667     12670     12670     12671     12670     12672     12670     12673
     12673     12674     12673     12675     12673     12676     12676     12677
     12676     12678     12676     12679     12679     12680     12679     12681
     12679     12682     12630     12631     12631     12633     12631     12632
     12633     12634     12633     12635     12633     12683     12683     12684
     12683     12685     12683     12686     12686     12687     12686     12688
     12686     12689     12689     12690     12689     12691     12689     12692
     12692     12693     12692     12694     12692     12695     12695     12696
     12695     12697     12695     12698     12698     12699     12698     12700
     12698     12701     12701     12702     12701     12703     12701     12704
     12704     12705     12704     12706     12704     12707     12707     12708
     12707     12709     12707     12710     12710     12711     12710     12712
     12710     12713     12713     12714     12713     12715     12713     12716
     12716     12717     12716     12718     12716     12719     12719     12720
     12719     12721     12719     12722     12722     12723     12722     12724
     12722     12725     12725     12726     12725     12727     12725     12728
     12728     12729     12728     12730     12728     12731     12732     12733
     12732     12737     12732     12741     12733     12734     12733     12735
     12733     12736     12737     12738     12737     12739     12737     12740
     12741     12742     12741     12743     12741     12744     12732     12745
     12745     12746     12745     12747     12745     12748     12748     12749
     12748     12750     12748     12754     12755     12756     12754     12751
     12751     12755     12751     12752     12751     12753     12756     12757
     12756     12758     12756     12759     12759     12760     12759     12767
     12759     12761     12767     12768     12767     12769     12767     12770
     12761     12762     12762     12764     12762     12763     12764     12765
     12764     12766     12764     12776     12776     12777     12776     12778
     12776     12779     12779     12780     12779     12781     12779     12782
     12782     12783     12782     12784     12782     12785     12785     12786
     12785     12787     12785     12788     12788     12789     12788     12790
     12788     12791     12791     12792     12791     12793     12791     12794
     12794     12795     12794     12796     12796     12797     12796     12798
     12798     12799     12798     12800     12798     12801     12801     12802
     12801     12803     12803     12804     12803     12805     12805     12806
     12805     12807     12805     12808     12808     12809     12808     12810
     12808     12811     12811     12812     12811     12813     12811     12814
     12814     12815     12814     12816     12814     12817     12817     12818
     12817     12819     12817     12820     12770     12771     12771     12773
     12771     12772     12773     12774     12773     12775     12773     12821
     12821     12822     12821     12823     12821     12824     12824     12825
     12824     12826     12824     12827     12827     12828     12827     12829
     12827     12830     12830     12831     12830     12832     12830     12833
     12833     12834     12833     12835     12833     12836     12836     12837
     12836     12838     12836     12839     12839     12840     12839     12841
     12839     12842     12842     12843     12842     12844     12842     12845
     12845     12846     12845     12847     12845     12848     12848     12849
     12848     12850     12848     12851     12851     12852     12851     12853
     12851     12854     12854     12855     12854     12856     12854     12857
     12857     12858     12857     12859     12857     12860     12860     12861
     12860     12862     12860     12863     12863     12864     12863     12865
     12863     12866     12866     12867     12866     12868     12866     12869
     12870     12872     12870     12871     12872     12873     12870     12916
     12916     12917     12916     12918     12916     12913     12913     12914
     12913     12915     12870     12874     12874     12875     12874     12876
     12874     12877     12877     12908     12908     12913     12908     12909
     12909     12910     12909     12911     12909     12912     12877     12878
     12878     12879     12878     12880     12880     12881     12880     12882
     12880     12883     12883     12884     12883     12906     12906     12907
     12906     12908     12883     12885     12885     12886     12885     12895
     12895     12900     12900     12901     12900     12902     12900     12903
     12903     12904     12903     12905     12903     12906     12895     12896
     12896     12897     12896     12898     12896     12899     12885     12887
     12887     12888     12887     12889     12887     12890     12890     12891
     12890     12892     12890     12893     12893     12894     12893     12895
     12893     12919     12919     12920     12919     12921     12921     12922
     12921     12923     12921     12924     12919     12925     12925     12926
     12925     12927     12925     12928     12928     12929     12928     12930
     12928     12931     12931     12932     12931     12933     12931     12934
     12934     12935     12934     12936     12936     12937     12936     12938
     12936     12939     12934     12940     12940     12941     12940     12942
     12940     12943     12944     12945     12944     12946     12944     12947
     12944     12948     12948     12949     12948     12950     12948     12951
     12951     12952     12951     12953     12951     12957     12959     12958
     12957     12954     12954     12958     12954     12955     12954     12956
     12959     12960     12959     12961     12959     12962     12962     12963
     12962     12970     12962     12964     12970     12971     12970     12972
     12970     12973     12964     12965     12965     12967     12965     12966
     12967     12968     12967     12969     12967     12979     12979     12980
     12979     12981     12979     12982     12982     12983     12982     12984
     12982     12985     12985     12986     12985     12987     12987     12988
     12987     12989     12989     12990     12989     12991     12989     12992
     12992     12993     12992     12994     12994     12995     12994     12996
     12996     12997     12996     12998     12996     12999     12999     13000
     12999     13001     13001     13002     13001     13003     13003     13004
     13003     13005     13003     13006     13006     13007     13006     13008
     13008     13009     13008     13010     13010     13011     13010     13012
     13010     13013     13013     13014     13013     13015     13013     13016
     13016     13017     13016     13018     13016     13019     13019     13020
     13019     13021     13019     13022     13022     13023     13022     13024
     13022     13025     12973     12974     12974     12976     12974     12975
     12976     12977     12976     12978     12976     13026     13026     13027
     13026     13028     13026     13029     13029     13030     13029     13031
     13029     13032     13032     13033     13032     13034     13032     13035
     13035     13036     13035     13037     13035     13038     13038     13039
     13038     13040     13038     13041     13041     13042     13041     13043
     13041     13044     13044     13045     13044     13046     13044     13047
     13047     13048     13047     13049     13047     13050     13050     13051
     13050     13052     13050     13053     13053     13054     13053     13055
     13053     13056     13056     13057     13056     13058     13056     13059
     13059     13060     13059     13061     13059     13062     13062     13063
     13062     13064     13062     13065     13065     13066     13065     13067
     13065     13068     13068     13069     13068     13070     13068     13071
     13071     13072     13071     13073     13071     13074     13150     13151
     13150     13152     13150     13153     13150     13147     13147     13148
     13147     13149     13147     13144     13144     13145     13144     13146
     13144     13141     13141     13142     13141     13143     13141     13138
     13138     13139     13138     13140     13138     13135     13135     13136
     13135     13137     13135     13132     13132     13133     13132     13134
     13132     13129     13129     13130     13129     13131     13129     13126
     13126     13127     13126     13128     13126     13123     13123     13124
     13123     13125     13123     13120     13120     13121     13120     13122
     13120     13117     13117     13118     13117     13119     13117     13114
     13114     13115     13114     13116     13114     13112     13112     13113
     13110     13111     13110     13106     13106     13107     13106     13108
     13108     13109     13106     13104     13104     13105     13104     13099
     13099     13100     13099     13101     13099     13097     13097     13094
     13098     13094     13095     13094     13096     13094     13098     13091
     13091     13092     13091     13093     13091     13088     13088     13089
     13088     13090     13088     13075     13075     13084     13075     13080
     13075     13076     13084     13085     13084     13086     13084     13087
     13080     13081     13080     13082     13080     13083     13076     13077
     13076     13078     13076     13079     13104     13102     13102     13103
     13102     13154     13154     13156     13156     13157     13156     13158
     13156     13159     13159     13160     13159     13161     13159     13162
     13162     13163     13162     13164     13162     13165     13165     13166
     13165     13167     13165     13168     13168     13169     13168     13170
     13168     13171     13171     13172     13171     13173     13171     13174
     13174     13175     13174     13176     13174     13177     13177     13178
     13179     13180     13179     13181     13181     13182     13181     13183
     13181     13184     13184     13185     13184     13186     13184     13187
     13187     13188     13187     13189     13187     13190     13190     13191
     13190     13192     13190     13193     13193     13194     13193     13195
     13193     13196     13196     13197     13196     13198     13196     13199
     13199     13200     13199     13201     13199     13202     13202     13203
     13202     13204     13202     13205     13110     13112     13177     13179
     13154     13155     13206     13208     13206     13207     13208     13209
     13206     13252     13252     13253     13252     13254     13252     13249
     13249     13250     13249     13251     13206     13210     13210     13211
     13210     13212     13210     13213     13213     13244     13244     13249
     13244     13245     13245     13246     13245     13247     13245     13248
     13213     13214     13214     13215     13214     13216     13216     13217
     13216     13218     13216     13219     13219     13220     13219     13242
     13242     13243     13242     13244     13219     13221     13221     13222
     13221     13231     13231     13236     13236     13237     13236     13238
     13236     13239     13239     13240     13239     13241     13239     13242
     13231     13232     13232     13233     13232     13234     13232     13235
     13221     13223     13223     13224     13223     13225     13223     13226
     13226     13227     13226     13228     13226     13229     13229     13230
     13229     13231     13229     13255     13255     13256     13255     13257
     13257     13258     13257     13259     13257     13260     13255     13261
     13261     13262     13261     13263     13261     13264     13264     13265
     13264     13266     13264     13267     13267     13268     13267     13269
     13267     13270     13270     13271     13270     13272     13272     13273
     13272     13274     13272     13275     13270     13276     13276     13277
     13276     13278     13276     13279     13355     13356     13355     13357
     13355     13358     13355     13352     13352     13353     13352     13354
     13352     13349     13349     13350     13349     13351     13349     13346
     13346     13347     13346     13348     13346     13343     13343     13344
     13343     13345     13343     13340     13340     13341     13340     13342
     13340     13337     13337     13338     13337     13339     13337     13334
     13334     13335     13334     13336     13334     13331     13331     13332
     13331     13333     13331     13328     13328     13329     13328     13330
     13328     13325     13325     13326     13325     13327     13325     13322
     13322     13323     13322     13324     13322     13319     13319     13320
     13319     13321     13319     13317     13317     13318     13315     13316
     13315     13311     13311     13312     13311     13313     13313     13314
     13311     13309     13309     13310     13309     13304     13304     13305
     13304     13306     13304     13302     13302     13299     13303     13299
     13300     13299     13301     13299     13303     13296     13296     13297
     13296     13298     13296     13293     13293     13294     13293     13295
     13293     13280     13280     13289     13280     13285     13280     13281
     13289     13290     13289     13291     13289     13292     13285     13286
     13285     13287     13285     13288     13281     13282     13281     13283
     13281     13284     13309     13307     13307     13308     13307     13359
     13359     13361     13361     13362     13361     13363     13361     13364
     13364     13365     13364     13366     13364     13367     13367     13368
     13367     13369     13367     13370     13370     13371     13370     13372
     13370     13373     13373     13374     13373     13375     13373     13376
     13376     13377     13376     13378     13376     13379     13379     13380
     13379     13381     13379     13382     13382     13383     13384     13385
     13384     13386     13386     13387     13386     13388     13386     13389
     13389     13390     13389     13391     13389     13392     13392     13393
     13392     13394     13392     13395     13395     13396     13395     13397
     13395     13398     13398     13399     13398     13400     13398     13401
     13401     13402     13401     13403     13401     13404     13404     13405
     13404     13406     13404     13407     13407     13408     13407     13409
     13407     13410     13315     13317     13382     13384     13359     13360
     13411     13413     13411     13412     13413     13414     13411     13457
     13457     13458     13457     13459     13457     13454     13454     13455
     13454     13456     13411     13415     13415     13416     13415     13417
     13415     13418     13418     13449     13449     13454     13449     13450
     13450     13451     13450     13452     13450     13453     13418     13419
     13419     13420     13419     13421     13421     13422     13421     13423
     13421     13424     13424     13425     13424     13447     13447     13448
     13447     13449     13424     13426     13426     13427     13426     13436
     13436     13441     13441     13442     13441     13443     13441     13444
     13444     13445     13444     13446     13444     13447     13436     13437
     13437     13438     13437     13439     13437     13440     13426     13428
     13428     13429     13428     13430     13428     13431     13431     13432
     13431     13433     13431     13434     13434     13435     13434     13436
     13434     13460     13460     13461     13460     13462     13462     13463
     13462     13464     13462     13465     13460     13466     13466     13467
     13466     13468     13466     13469     13469     13470     13469     13471
     13469     13472     13472     13473     13472     13474     13472     13475
     13475     13476     13475     13477     13477     13478     13477     13479
     13477     13480     13475     13481     13481     13482     13481     13483
     13481     13484     13485     13487     13485     13486     13487     13488
     13485     13531     13531     13532     13531     13533     13531     13528
     13528     13529     13528     13530     13485     13489     13489     13490
     13489     13491     13489     13492     13492     13523     13523     13528
     13523     13524     13524     13525     13524     13526     13524     13527
     13492     13493     13493     13494     13493     13495     13495     13496
     13495     13497     13495     13498     13498     13499     13498     13521
     13521     13522     13521     13523     13498     13500     13500     13501
     13500     13510     13510     13515     13515     13516     13515     13517
     13515     13518     13518     13519     13518     13520     13518     13521
     13510     13511     13511     13512     13511     13513     13511     13514
     13500     13502     13502     13503     13502     13504     13502     13505
     13505     13506     13505     13507     13505     13508     13508     13509
     13508     13510     13508     13534     13534     13535     13534     13536
     13536     13537     13536     13538     13536     13539     13534     13540
     13540     13541     13540     13542     13540     13543     13543     13544
     13543     13545     13543     13546     13546     13547     13546     13548
     13546     13549     13549     13550     13549     13551     13551     13552
     13551     13553     13551     13554     13549     13555     13555     13556
     13555     13557     13555     13558     13559     13563     13559     13567
     13559     13571     13563     13564     13563     13565     13563     13566
     13567     13568     13567     13569     13567     13570     13571     13572
     13571     13573     13571     13574     13559     13560     13560     13561
     13560     13562     13560     13575     13575     13576     13575     13577
     13575     13581     13582     13583     13581     13578     13578     13582
     13578     13579     13578     13580     13583     13584     13583     13585
     13583     13586     13586     13587     13586     13594     13586     13588
     13594     13595     13594     13596     13594     13597     13588     13589
     13589     13591     13589     13590     13591     13592     13591     13593
     13591     13603     13603     13604     13603     13605     13603     13606
     13606     13607     13606     13608     13606     13609     13609     13610
     13609     13611     13611     13612     13611     13613     13613     13614
     13613     13615     13613     13616     13616     13617     13616     13618
     13618     13619     13618     13620     13620     13621     13620     13622
     13620     13623     13623     13624     13623     13625     13625     13626
     13625     13627     13627     13628     13627     13629     13627     13630
     13630     13631     13630     13632     13632     13633     13632     13634
     13634     13635     13634     13636     13634     13637     13637     13638
     13637     13639     13637     13640     13640     13641     13640     13642
     13640     13643     13643     13644     13643     13645     13643     13646
     13646     13647     13646     13648     13646     13649     13597     13598
     13598     13600     13598     13599     13600     13601     13600     13602
     13600     13650     13650     13651     13650     13652     13650     13653
     13653     13654     13653     13655     13653     13656     13656     13657
     13656     13658     13656     13659     13659     13660     13659     13661
     13659     13662     13662     13663     13662     13664     13662     13665
     13665     13666     13665     13667     13665     13668     13668     13669
     13668     13670     13668     13671     13671     13672     13671     13673
     13671     13674     13674     13675     13674     13676     13674     13677
     13677     13678     13677     13679     13677     13680     13680     13681
     13680     13682     13680     13683     13683     13684     13683     13685
     13683     13686     13686     13687     13686     13688     13686     13689
     13689     13690     13689     13691     13689     13692     13692     13693
     13692     13694     13692     13695     13695     13696     13695     13697
     13695     13698     13699     13701     13699     13700     13701     13702
     13699     13745     13745     13746     13745     13747     13745     13742
     13742     13743     13742     13744     13699     13703     13703     13704
     13703     13705     13703     13706     13706     13737     13737     13742
     13737     13738     13738     13739     13738     13740     13738     13741
     13706     13707     13707     13708     13707     13709     13709     13710
     13709     13711     13709     13712     13712     13713     13712     13735
     13735     13736     13735     13737     13712     13714     13714     13715
     13714     13724     13724     13729     13729     13730     13729     13731
     13729     13732     13732     13733     13732     13734     13732     13735
     13724     13725     13725     13726     13725     13727     13725     13728
     13714     13716     13716     13717     13716     13718     13716     13719
     13719     13720     13719     13721     13719     13722     13722     13723
     13722     13724     13722     13748     13748     13749     13748     13750
     13750     13751     13750     13752     13750     13753     13748     13754
     13754     13755     13754     13756     13754     13757     13757     13758
     13757     13759     13757     13760     13760     13761     13760     13762
     13760     13763     13763     13764     13763     13765     13765     13766
     13765     13767     13765     13768     13763     13769     13769     13770
     13769     13771     13769     13772     13773     13777     13773     13781
     13773     13785     13777     13778     13777     13779     13777     13780
     13781     13782     13781     13783     13781     13784     13785     13786
     13785     13787     13785     13788     13773     13774     13774     13775
     13774     13776     13774     13789     13789     13790     13789     13791
     13789     13795     13796     13797     13795     13792     13792     13796
     13792     13793     13792     13794     13797     13798     13797     13799
     13797     13800     13800     13801     13800     13808     13800     13802
     13808     13809     13808     13810     13808     13811     13802     13803
     13803     13805     13803     13804     13805     13806     13805     13807
     13805     13817     13817     13818     13817     13819     13817     13820
     13820     13821     13820     13822     13820     13823     13823     13824
     13823     13825     13825     13826     13825     13827     13827     13828
     13827     13829     13827     13830     13830     13831     13830     13832
     13832     13833     13832     13834     13834     13835     13834     13836
     13834     13837     13837     13838     13837     13839     13839     13840
     13839     13841     13841     13842     13841     13843     13841     13844
     13844     13845     13844     13846     13846     13847     13846     13848
     13848     13849     13848     13850     13848     13851     13851     13852
     13851     13853     13851     13854     13854     13855     13854     13856
     13854     13857     13857     13858     13857     13859     13857     13860
     13860     13861     13860     13862     13860     13863     13811     13812
     13812     13814     13812     13813     13814     13815     13814     13816
     13814     13864     13864     13865     13864     13866     13864     13867
     13867     13868     13867     13869     13867     13870     13870     13871
     13870     13872     13870     13873     13873     13874     13873     13875
     13873     13876     13876     13877     13876     13878     13876     13879
     13879     13880     13879     13881     13879     13882     13882     13883
     13882     13884     13882     13885     13885     13886     13885     13887
     13885     13888     13888     13889     13888     13890     13888     13891
     13891     13892     13891     13893     13891     13894     13894     13895
     13894     13896     13894     13897     13897     13898     13897     13899
     13897     13900     13900     13901     13900     13902     13900     13903
     13903     13904     13903     13905     13903     13906     13906     13907
     13906     13908     13906     13909     13909     13910     13909     13911
     13909     13912     13913     13914     13913     13915     13913     13916
     13913     13917     13917     13918     13917     13919     13917     13920
     13920     13921     13920     13922     13920     13926     13928     13927
     13926     13923     13923     13927     13923     13924     13923     13925
     13928     13929     13928     13930     13928     13931     13931     13932
     13931     13939     13931     13933     13939     13940     13939     13941
     13939     13942     13933     13934     13934     13936     13934     13935
     13936     13937     13936     13938     13936     13948     13948     13949
     13948     13950     13948     13951     13951     13952     13951     13953
     13951     13954     13954     13955     13954     13956     13954     13957
     13957     13958     13957     13959     13957     13960     13960     13961
     13960     13962     13960     13963     13963     13964     13963     13965
     13963     13966     13966     13967     13966     13968     13968     13969
     13968     13970     13970     13971     13970     13972     13970     13973
     13973     13974     13973     13975     13973     13976     13976     13977
     13976     13978     13976     13979     13979     13980     13979     13981
     13979     13982     13982     13983     13982     13984     13982     13985
     13985     13986     13985     13987     13985     13988     13988     13989
     13988     13990     13988     13991     13991     13992     13991     13993
     13991     13994     13942     13943     13943     13945     13943     13944
     13945     13946     13945     13947     13945     13995     13995     13996
     13995     13997     13995     13998     13998     13999     13998     14000
     13998     14001     14001     14002     14001     14003     14001     14004
     14004     14005     14004     14006     14004     14007     14007     14008
     14007     14009     14007     14010     14010     14011     14010     14012
     14010     14013     14013     14014     14013     14015     14013     14016
     14016     14017     14016     14018     14016     14019     14019     14020
     14019     14021     14019     14022     14022     14023     14022     14024
     14022     14025     14025     14026     14025     14027     14025     14028
     14028     14029     14028     14030     14028     14031     14031     14032
     14031     14033     14031     14034     14034     14035     14034     14036
     14034     14037     14037     14038     14037     14039     14037     14040
     14040     14041     14040     14042     14040     14043     14044     14045
     14044     14046     14044     14047     14044     14048     14048     14049
     14048     14050     14048     14051     14051     14052     14051     14053
     14051     14057     14059     14058     14057     14054     14054     14058
     14054     14055     14054     14056     14059     14060     14059     14061
     14059     14062     14062     14063     14062     14070     14062     14064
     14070     14071     14070     14072     14070     14073     14064     14065
     14065     14067     14065     14066     14067     14068     14067     14069
     14067     14079     14079     14080     14079     14081     14079     14082
     14082     14083     14082     14084     14082     14085     14085     14086
     14085     14087     14085     14088     14088     14089     14088     14090
     14088     14091     14091     14092     14091     14093     14091     14094
     14094     14095     14094     14096     14094     14097     14097     14098
     14097     14099     14099     14100     14099     14101     14101     14102
     14101     14103     14101     14104     14104     14105     14104     14106
     14104     14107     14107     14108     14107     14109     14107     14110
     14110     14111     14110     14112     14110     14113     14113     14114
     14113     14115     14113     14116     14116     14117     14116     14118
     14116     14119     14119     14120     14119     14121     14119     14122
     14122     14123     14122     14124     14122     14125     14073     14074
     14074     14076     14074     14075     14076     14077     14076     14078
     14076     14126     14126     14127     14126     14128     14126     14129
     14129     14130     14129     14131     14129     14132     14132     14133
     14132     14134     14132     14135     14135     14136     14135     14137
     14135     14138     14138     14139     14138     14140     14138     14141
     14141     14142     14141     14143     14141     14144     14144     14145
     14144     14146     14144     14147     14147     14148     14147     14149
     14147     14150     14150     14151     14150     14152     14150     14153
     14153     14154     14153     14155     14153     14156     14156     14157
     14156     14158     14156     14159     14159     14160     14159     14161
     14159     14162     14162     14163     14162     14164     14162     14165
     14165     14166     14165     14167     14165     14168     14168     14169
     14168     14170     14168     14171     14171     14172     14171     14173
     14171     14174     14175     14176     14175     14177     14175     14178
     14175     14179     14183     14181     14181     14179     14181     14182
     14179     14180     14179     14184     14192     14191     14184     14185
     14184     14186     14184     14190     14190     14187     14187     14191
     14187     14188     14187     14189     14192     14193     14192     14194
     14192     14195     14195     14196     14195     14203     14195     14197
     14203     14204     14203     14205     14203     14206     14197     14198
     14198     14200     14198     14199     14200     14201     14200     14202
     14200     14212     14212     14213     14212     14214     14212     14215
     14215     14216     14215     14217     14215     14218     14218     14219
     14218     14220     14220     14221     14220     14222     14222     14223
     14222     14224     14222     14225     14225     14226     14225     14227
     14227     14228     14227     14229     14229     14230     14229     14231
     14229     14232     14232     14233     14232     14234     14234     14235
     14234     14236     14236     14237     14236     14238     14236     14239
     14239     14240     14239     14241     14241     14242     14241     14243
     14243     14244     14243     14245     14243     14246     14246     14247
     14246     14248     14246     14249     14249     14250     14249     14251
     14249     14252     14252     14253     14252     14254     14252     14255
     14255     14256     14255     14257     14255     14258     14206     14207
     14207     14209     14207     14208     14209     14210     14209     14211
     14209     14259     14259     14260     14259     14261     14259     14262
     14262     14263     14262     14264     14262     14265     14265     14266
     14265     14267     14265     14268     14268     14269     14268     14270
     14268     14271     14271     14272     14271     14273     14271     14274
     14274     14275     14274     14276     14274     14277     14277     14278
     14277     14279     14277     14280     14280     14281     14280     14282
     14280     14283     14283     14284     14283     14285     14283     14286
     14286     14287     14286     14288     14286     14289     14289     14290
     14289     14291     14289     14292     14292     14293     14292     14294
     14292     14295     14295     14296     14295     14297     14295     14298
     14298     14299     14298     14300     14298     14301     14301     14302
     14301     14303     14301     14304     14304     14305     14304     14306
     14304     14307     14383     14384     14383     14385     14383     14386
     14383     14380     14380     14381     14380     14382     14380     14377
     14377     14378     14377     14379     14377     14374     14374     14375
     14374     14376     14374     14371     14371     14372     14371     14373
     14371     14368     14368     14369     14368     14370     14368     14365
     14365     14366     14365     14367     14365     14362     14362     14363
     14362     14364     14362     14359     14359     14360     14359     14361
     14359     14356     14356     14357     14356     14358     14356     14353
     14353     14354     14353     14355     14353     14350     14350     14351
     14350     14352     14350     14347     14347     14348     14347     14349
     14347     14345     14345     14346     14343     14344     14343     14339
     14339     14340     14339     14341     14341     14342     14339     14337
     14337     14338     14337     14332     14332     14333     14332     14334
     14332     14330     14330     14327     14331     14327     14328     14327
     14329     14327     14331     14324     14324     14325     14324     14326
     14324     14321     14321     14322     14321     14323     14321     14308
     14308     14317     14308     14313     14308     14309     14317     14318
     14317     14319     14317     14320     14313     14314     14313     14315
     14313     14316     14309     14310     14309     14311     14309     14312
     14337     14335     14335     14336     14335     14387     14387     14389
     14389     14390     14389     14391     14389     14392     14392     14393
     14392     14394     14392     14395     14395     14396     14395     14397
     14395     14398     14398     14399     14398     14400     14398     14401
     14401     14402     14401     14403     14401     14404     14404     14405
     14404     14406     14404     14407     14407     14408     14407     14409
     14407     14410     14410     14411     14412     14413     14412     14414
     14414     14415     14414     14416     14414     14417     14417     14418
     14417     14419     14417     14420     14420     14421     14420     14422
     14420     14423     14423     14424     14423     14425     14423     14426
     14426     14427     14426     14428     14426     14429     14429     14430
     14429     14431     14429     14432     14432     14433     14432     14434
     14432     14435     14435     14436     14435     14437     14435     14438
     14343     14345     14410     14412     14387     14388     14439     14443
     14439     14447     14439     14451     14443     14444     14443     14445
     14443     14446     14447     14448     14447     14449     14447     14450
     14451     14452     14451     14453     14451     14454     14439     14440
     14440     14441     14440     14442     14440     14455     14455     14456
     14455     14457     14455     14461     14462     14463     14461     14458
     14458     14462     14458     14459     14458     14460     14463     14464
     14463     14465     14463     14466     14466     14467     14466     14474
     14466     14468     14474     14475     14474     14476     14474     14477
     14468     14469     14469     14471     14469     14470     14471     14472
     14471     14473     14471     14483     14483     14484     14483     14485
     14483     14486     14486     14487     14486     14488     14486     14489
     14489     14490     14489     14491     14491     14492     14491     14493
     14493     14494     14493     14495     14493     14496     14496     14497
     14496     14498     14498     14499     14498     14500     14500     14501
     14500     14502     14500     14503     14503     14504     14503     14505
     14505     14506     14505     14507     14507     14508     14507     14509
     14507     14510     14510     14511     14510     14512     14512     14513
     14512     14514     14514     14515     14514     14516     14514     14517
     14517     14518     14517     14519     14517     14520     14520     14521
     14520     14522     14520     14523     14523     14524     14523     14525
     14523     14526     14526     14527     14526     14528     14526     14529
     14477     14478     14478     14480     14478     14479     14480     14481
     14480     14482     14480     14530     14530     14531     14530     14532
     14530     14533     14533     14534     14533     14535     14533     14536
     14536     14537     14536     14538     14536     14539     14539     14540
     14539     14541     14539     14542     14542     14543     14542     14544
     14542     14545     14545     14546     14545     14547     14545     14548
     14548     14549     14548     14550     14548     14551     14551     14552
     14551     14553     14551     14554     14554     14555     14554     14556
     14554     14557     14557     14558     14557     14559     14557     14560
     14560     14561     14560     14562     14560     14563     14563     14564
     14563     14565     14563     14566     14566     14567     14566     14568
     14566     14569     14569     14570     14569     14571     14569     14572
     14572     14573     14572     14574     14572     14575     14575     14576
     14575     14577     14575     14578     14579     14581     14579     14580
     14581     14582     14579     14625     14625     14626     14625     14627
     14625     14622     14622     14623     14622     14624     14579     14583
     14583     14584     14583     14585     14583     14586     14586     14617
     14617     14622     14617     14618     14618     14619     14618     14620
     14618     14621     14586     14587     14587     14588     14587     14589
     14589     14590     14589     14591     14589     14592     14592     14593
     14592     14615     14615     14616     14615     14617     14592     14594
     14594     14595     14594     14604     14604     14609     14609     14610
     14609     14611     14609     14612     14612     14613     14612     14614
     14612     14615     14604     14605     14605     14606     14605     14607
     14605     14608     14594     14596     14596     14597     14596     14598
     14596     14599     14599     14600     14599     14601     14599     14602
     14602     14603     14602     14604     14602     14628     14628     14629
     14628     14630     14630     14631     14630     14632     14630     14633
     14628     14634     14634     14635     14634     14636     14634     14637
     14637     14638     14637     14639     14637     14640     14640     14641
     14640     14642     14640     14643     14643     14644     14643     14645
     14645     14646     14645     14647     14645     14648     14643     14649
     14649     14650     14649     14651     14649     14652     14653     14654
     14653     14655     14653     14656     14653     14657     14661     14659
     14659     14657     14659     14660     14657     14658     14657     14662
     14670     14669     14662     14663     14662     14664     14662     14668
     14668     14665     14665     14669     14665     14666     14665     14667
     14670     14671     14670     14672     14670     14673     14673     14674
     14673     14681     14673     14675     14681     14682     14681     14683
     14681     14684     14675     14676     14676     14678     14676     14677
     14678     14679     14678     14680     14678     14690     14690     14691
     14690     14692     14690     14693     14693     14694     14693     14695
     14693     14696     14696     14697     14696     14698     14698     14699
     14698     14700     14700     14701     14700     14702     14700     14703
     14703     14704     14703     14705     14705     14706     14705     14707
     14707     14708     14707     14709     14707     14710     14710     14711
     14710     14712     14712     14713     14712     14714     14714     14715
     14714     14716     14714     14717     14717     14718     14717     14719
     14719     14720     14719     14721     14721     14722     14721     14723
     14721     14724     14724     14725     14724     14726     14724     14727
     14727     14728     14727     14729     14727     14730     14730     14731
     14730     14732     14730     14733     14733     14734     14733     14735
     14733     14736     14684     14685     14685     14687     14685     14686
     14687     14688     14687     14689     14687     14737     14737     14738
     14737     14739     14737     14740     14740     14741     14740     14742
     14740     14743     14743     14744     14743     14745     14743     14746
     14746     14747     14746     14748     14746     14749     14749     14750
     14749     14751     14749     14752     14752     14753     14752     14754
     14752     14755     14755     14756     14755     14757     14755     14758
     14758     14759     14758     14760     14758     14761     14761     14762
     14761     14763     14761     14764     14764     14765     14764     14766
     14764     14767     14767     14768     14767     14769     14767     14770
     14770     14771     14770     14772     14770     14773     14773     14774
     14773     14775     14773     14776     14776     14777     14776     14778
     14776     14779     14779     14780     14779     14781     14779     14782
     14782     14783     14782     14784     14782     14785     14786     14788
     14786     14787     14788     14789     14786     14832     14832     14833
     14832     14834     14832     14829     14829     14830     14829     14831
     14786     14790     14790     14791     14790     14792     14790     14793
     14793     14824     14824     14829     14824     14825     14825     14826
     14825     14827     14825     14828     14793     14794     14794     14795
     14794     14796     14796     14797     14796     14798     14796     14799
     14799     14800     14799     14822     14822     14823     14822     14824
     14799     14801     14801     14802     14801     14811     14811     14816
     14816     14817     14816     14818     14816     14819     14819     14820
     14819     14821     14819     14822     14811     14812     14812     14813
     14812     14814     14812     14815     14801     14803     14803     14804
     14803     14805     14803     14806     14806     14807     14806     14808
     14806     14809     14809     14810     14809     14811     14809     14835
     14835     14836     14835     14837     14837     14838     14837     14839
     14837     14840     14835     14841     14841     14842     14841     14843
     14841     14844     14844     14845     14844     14846     14844     14847
     14847     14848     14847     14849     14847     14850     14850     14851
     14850     14852     14852     14853     14852     14854     14852     14855
     14850     14856     14856     14857     14856     14858     14856     14859
     14860     14861     14860     14862     14860     14863     14860     14864
     14864     14865     14864     14866     14864     14867     14867     14868
     14867     14869     14867     14873     14875     14874     14873     14870
     14870     14874     14870     14871     14870     14872     14875     14876
     14875     14877     14875     14878     14878     14879     14878     14886
     14878     14880     14886     14887     14886     14888     14886     14889
     14880     14881     14881     14883     14881     14882     14883     14884
     14883     14885     14883     14895     14895     14896     14895     14897
     14895     14898     14898     14899     14898     14900     14898     14901
     14901     14902     14901     14903     14901     14904     14904     14905
     14904     14906     14904     14907     14907     14908     14907     14909
     14907     14910     14910     14911     14910     14912     14910     14913
     14913     14914     14913     14915     14915     14916     14915     14917
     14917     14918     14917     14919     14917     14920     14920     14921
     14920     14922     14920     14923     14923     14924     14923     14925
     14923     14926     14926     14927     14926     14928     14926     14929
     14929     14930     14929     14931     14929     14932     14932     14933
     14932     14934     14932     14935     14935     14936     14935     14937
     14935     14938     14938     14939     14938     14940     14938     14941
     14889     14890     14890     14892     14890     14891     14892     14893
     14892     14894     14892     14942     14942     14943     14942     14944
     14942     14945     14945     14946     14945     14947     14945     14948
     14948     14949     14948     14950     14948     14951     14951     14952
     14951     14953     14951     14954     14954     14955     14954     14956
     14954     14957     14957     14958     14957     14959     14957     14960
     14960     14961     14960     14962     14960     14963     14963     14964
     14963     14965     14963     14966     14966     14967     14966     14968
     14966     14969     14969     14970     14969     14971     14969     14972
     14972     14973     14972     14974     14972     14975     14975     14976
     14975     14977     14975     14978     14978     14979     14978     14980
     14978     14981     14981     14982     14981     14983     14981     14984
     14984     14985     14984     14986     14984     14987     14987     14988
     14987     14989     14987     14990     15066     15067     15066     15068
     15066     15069     15066     15063     15063     15064     15063     15065
     15063     15060     15060     15061     15060     15062     15060     15057
     15057     15058     15057     15059     15057     15054     15054     15055
     15054     15056     15054     15051     15051     15052     15051     15053
     15051     15048     15048     15049     15048     15050     15048     15045
     15045     15046     15045     15047     15045     15042     15042     15043
     15042     15044     15042     15039     15039     15040     15039     15041
     15039     15036     15036     15037     15036     15038     15036     15033
     15033     15034     15033     15035     15033     15030     15030     15031
     15030     15032     15030     15028     15028     15029     15026     15027
     15026     15022     15022     15023     15022     15024     15024     15025
     15022     15020     15020     15021     15020     15015     15015     15016
     15015     15017     15015     15013     15013     15010     15014     15010
     15011     15010     15012     15010     15014     15007     15007     15008
     15007     15009     15007     15004     15004     15005     15004     15006
     15004     14991     14991     15000     14991     14996     14991     14992
     15000     15001     15000     15002     15000     15003     14996     14997
     14996     14998     14996     14999     14992     14993     14992     14994
     14992     14995     15020     15018     15018     15019     15018     15070
     15070     15072     15072     15073     15072     15074     15072     15075
     15075     15076     15075     15077     15075     15078     15078     15079
     15078     15080     15078     15081     15081     15082     15081     15083
     15081     15084     15084     15085     15084     15086     15084     15087
     15087     15088     15087     15089     15087     15090     15090     15091
     15090     15092     15090     15093     15093     15094     15095     15096
     15095     15097     15097     15098     15097     15099     15097     15100
     15100     15101     15100     15102     15100     15103     15103     15104
     15103     15105     15103     15106     15106     15107     15106     15108
     15106     15109     15109     15110     15109     15111     15109     15112
     15112     15113     15112     15114     15112     15115     15115     15116
     15115     15117     15115     15118     15118     15119     15118     15120
     15118     15121     15026     15028     15093     15095     15070     15071
     15122     15124     15122     15123     15124     15125     15122     15168
     15168     15169     15168     15170     15168     15165     15165     15166
     15165     15167     15122     15126     15126     15127     15126     15128
     15126     15129     15129     15160     15160     15165     15160     15161
     15161     15162     15161     15163     15161     15164     15129     15130
     15130     15131     15130     15132     15132     15133     15132     15134
     15132     15135     15135     15136     15135     15158     15158     15159
     15158     15160     15135     15137     15137     15138     15137     15147
     15147     15152     15152     15153     15152     15154     15152     15155
     15155     15156     15155     15157     15155     15158     15147     15148
     15148     15149     15148     15150     15148     15151     15137     15139
     15139     15140     15139     15141     15139     15142     15142     15143
     15142     15144     15142     15145     15145     15146     15145     15147
     15145     15171     15171     15172     15171     15173     15173     15174
     15173     15175     15173     15176     15171     15177     15177     15178
     15177     15179     15177     15180     15180     15181     15180     15182
     15180     15183     15183     15184     15183     15185     15183     15186
     15186     15187     15186     15188     15188     15189     15188     15190
     15188     15191     15186     15192     15192     15193     15192     15194
     15192     15195     15196     15200     15196     15204     15196     15208
     15200     15201     15200     15202     15200     15203     15204     15205
     15204     15206     15204     15207     15208     15209     15208     15210
     15208     15211     15196     15197     15197     15198     15197     15199
     15197     15212     15212     15213     15212     15214     15212     15218
     15219     15220     15218     15215     15215     15219     15215     15216
     15215     15217     15220     15221     15220     15222     15220     15223
     15223     15224     15223     15231     15223     15225     15231     15232
     15231     15233     15231     15234     15225     15226     15226     15228
     15226     15227     15228     15229     15228     15230     15228     15240
     15240     15241     15240     15242     15240     15243     15243     15244
     15243     15245     15243     15246     15246     15247     15246     15248
     15246     15249     15249     15250     15249     15251     15249     15252
     15252     15253     15252     15254     15252     15255     15255     15256
     15255     15257     15255     15258     15258     15259     15258     15260
     15260     15261     15260     15262     15262     15263     15262     15264
     15262     15265     15265     15266     15265     15267     15265     15268
     15268     15269     15268     15270     15268     15271     15271     15272
     15271     15273     15271     15274     15274     15275     15274     15276
     15274     15277     15277     15278     15277     15279     15277     15280
     15280     15281     15280     15282     15280     15283     15283     15284
     15283     15285     15283     15286     15234     15235     15235     15237
     15235     15236     15237     15238     15237     15239     15237     15287
     15287     15288     15287     15289     15287     15290     15290     15291
     15290     15292     15290     15293     15293     15294     15293     15295
     15293     15296     15296     15297     15296     15298     15296     15299
     15299     15300     15299     15301     15299     15302     15302     15303
     15302     15304     15302     15305     15305     15306     15305     15307
     15305     15308     15308     15309     15308     15310     15308     15311
     15311     15312     15311     15313     15311     15314     15314     15315
     15314     15316     15314     15317     15317     15318     15317     15319
     15317     15320     15320     15321     15320     15322     15320     15323
     15323     15324     15323     15325     15323     15326     15326     15327
     15326     15328     15326     15329     15405     15406     15405     15407
     15405     15408     15405     15402     15402     15403     15402     15404
     15402     15399     15399     15400     15399     15401     15399     15396
     15396     15397     15396     15398     15396     15393     15393     15394
     15393     15395     15393     15390     15390     15391     15390     15392
     15390     15387     15387     15388     15387     15389     15387     15384
     15384     15385     15384     15386     15384     15381     15381     15382
     15381     15383     15381     15378     15378     15379     15378     15380
     15378     15375     15375     15376     15375     15377     15375     15372
     15372     15373     15372     15374     15372     15369     15369     15370
     15369     15371     15369     15367     15367     15368     15365     15366
     15365     15361     15361     15362     15361     15363     15363     15364
     15361     15359     15359     15360     15359     15354     15354     15355
     15354     15356     15354     15352     15352     15349     15353     15349
     15350     15349     15351     15349     15353     15346     15346     15347
     15346     15348     15346     15343     15343     15344     15343     15345
     15343     15330     15330     15339     15330     15335     15330     15331
     15339     15340     15339     15341     15339     15342     15335     15336
     15335     15337     15335     15338     15331     15332     15331     15333
     15331     15334     15359     15357     15357     15358     15357     15409
     15409     15411     15411     15412     15411     15413     15411     15414
     15414     15415     15414     15416     15414     15417     15417     15418
     15417     15419     15417     15420     15420     15421     15420     15422
     15420     15423     15423     15424     15423     15425     15423     15426
     15426     15427     15426     15428     15426     15429     15429     15430
     15429     15431     15429     15432     15432     15433     15434     15435
     15434     15436     15436     15437     15436     15438     15436     15439
     15439     15440     15439     15441     15439     15442     15442     15443
     15442     15444     15442     15445     15445     15446     15445     15447
     15445     15448     15448     15449     15448     15450     15448     15451
     15451     15452     15451     15453     15451     15454     15454     15455
     15454     15456     15454     15457     15457     15458     15457     15459
     15457     15460     15365     15367     15432     15434     15409     15410
     15461     15462     15461     15463     15461     15464     15461     15465
     15465     15466     15465     15467     15465     15468     15468     15469
     15468     15470     15468     15474     15476     15475     15474     15471
     15471     15475     15471     15472     15471     15473     15476     15477
     15476     15478     15476     15479     15479     15480     15479     15487
     15479     15481     15487     15488     15487     15489     15487     15490
     15481     15482     15482     15484     15482     15483     15484     15485
     15484     15486     15484     15496     15496     15497     15496     15498
     15496     15499     15499     15500     15499     15501     15499     15502
     15502     15503     15502     15504     15502     15505     15505     15506
     15505     15507     15505     15508     15508     15509     15508     15510
     15508     15511     15511     15512     15511     15513     15511     15514
     15514     15515     15514     15516     15516     15517     15516     15518
     15518     15519     15518     15520     15518     15521     15521     15522
     15521     15523     15521     15524     15524     15525     15524     15526
     15524     15527     15527     15528     15527     15529     15527     15530
     15530     15531     15530     15532     15530     15533     15533     15534
     15533     15535     15533     15536     15536     15537     15536     15538
     15536     15539     15539     15540     15539     15541     15539     15542
     15490     15491     15491     15493     15491     15492     15493     15494
     15493     15495     15493     15543     15543     15544     15543     15545
     15543     15546     15546     15547     15546     15548     15546     15549
     15549     15550     15549     15551     15549     15552     15552     15553
     15552     15554     15552     15555     15555     15556     15555     15557
     15555     15558     15558     15559     15558     15560     15558     15561
     15561     15562     15561     15563     15561     15564     15564     15565
     15564     15566     15564     15567     15567     15568     15567     15569
     15567     15570     15570     15571     15570     15572     15570     15573
     15573     15574     15573     15575     15573     15576     15576     15577
     15576     15578     15576     15579     15579     15580     15579     15581
     15579     15582     15582     15583     15582     15584     15582     15585
     15585     15586     15585     15587     15585     15588     15588     15589
     15588     15590     15588     15591     15667     15668     15667     15669
     15667     15670     15667     15664     15664     15665     15664     15666
     15664     15661     15661     15662     15661     15663     15661     15658
     15658     15659     15658     15660     15658     15655     15655     15656
     15655     15657     15655     15652     15652     15653     15652     15654
     15652     15649     15649     15650     15649     15651     15649     15646
     15646     15647     15646     15648     15646     15643     15643     15644
     15643     15645     15643     15640     15640     15641     15640     15642
     15640     15637     15637     15638     15637     15639     15637     15634
     15634     15635     15634     15636     15634     15631     15631     15632
     15631     15633     15631     15629     15629     15630     15627     15628
     15627     15623     15623     15624     15623     15625     15625     15626
     15623     15621     15621     15622     15621     15616     15616     15617
     15616     15618     15616     15614     15614     15611     15615     15611
     15612     15611     15613     15611     15615     15608     15608     15609
     15608     15610     15608     15605     15605     15606     15605     15607
     15605     15592     15592     15601     15592     15597     15592     15593
     15601     15602     15601     15603     15601     15604     15597     15598
     15597     15599     15597     15600     15593     15594     15593     15595
     15593     15596     15621     15619     15619     15620     15619     15671
     15671     15673     15673     15674     15673     15675     15673     15676
     15676     15677     15676     15678     15676     15679     15679     15680
     15679     15681     15679     15682     15682     15683     15682     15684
     15682     15685     15685     15686     15685     15687     15685     15688
     15688     15689     15688     15690     15688     15691     15691     15692
     15691     15693     15691     15694     15694     15695     15696     15697
     15696     15698     15698     15699     15698     15700     15698     15701
     15701     15702     15701     15703     15701     15704     15704     15705
     15704     15706     15704     15707     15707     15708     15707     15709
     15707     15710     15710     15711     15710     15712     15710     15713
     15713     15714     15713     15715     15713     15716     15716     15717
     15716     15718     15716     15719     15719     15720     15719     15721
     15719     15722     15627     15629     15694     15696     15671     15672
     15723     15724     15723     15725     15723     15726     15723     15727
     15731     15729     15729     15727     15729     15730     15727     15728
     15727     15732     15740     15739     15732     15733     15732     15734
     15732     15738     15738     15735     15735     15739     15735     15736
     15735     15737     15740     15741     15740     15742     15740     15743
     15743     15744     15743     15751     15743     15745     15751     15752
     15751     15753     15751     15754     15745     15746     15746     15748
     15746     15747     15748     15749     15748     15750     15748     15760
     15760     15761     15760     15762     15760     15763     15763     15764
     15763     15765     15763     15766     15766     15767     15766     15768
     15768     15769     15768     15770     15770     15771     15770     15772
     15770     15773     15773     15774     15773     15775     15775     15776
     15775     15777     15777     15778     15777     15779     15777     15780
     15780     15781     15780     15782     15782     15783     15782     15784
     15784     15785     15784     15786     15784     15787     15787     15788
     15787     15789     15789     15790     15789     15791     15791     15792
     15791     15793     15791     15794     15794     15795     15794     15796
     15794     15797     15797     15798     15797     15799     15797     15800
     15800     15801     15800     15802     15800     15803     15803     15804
     15803     15805     15803     15806     15754     15755     15755     15757
     15755     15756     15757     15758     15757     15759     15757     15807
     15807     15808     15807     15809     15807     15810     15810     15811
     15810     15812     15810     15813     15813     15814     15813     15815
     15813     15816     15816     15817     15816     15818     15816     15819
     15819     15820     15819     15821     15819     15822     15822     15823
     15822     15824     15822     15825     15825     15826     15825     15827
     15825     15828     15828     15829     15828     15830     15828     15831
     15831     15832     15831     15833     15831     15834     15834     15835
     15834     15836     15834     15837     15837     15838     15837     15839
     15837     15840     15840     15841     15840     15842     15840     15843
     15843     15844     15843     15845     15843     15846     15846     15847
     15846     15848     15846     15849     15849     15850     15849     15851
     15849     15852     15852     15853     15852     15854     15852     15855
     15856     15857     15856     15858     15856     15859     15856     15860
     15860     15861     15860     15862     15860     15863     15863     15864
     15863     15865     15863     15869     15871     15870     15869     15866
     15866     15870     15866     15867     15866     15868     15871     15872
     15871     15873     15871     15874     15874     15875     15874     15882
     15874     15876     15882     15883     15882     15884     15882     15885
     15876     15877     15877     15879     15877     15878     15879     15880
     15879     15881     15879     15891     15891     15892     15891     15893
     15891     15894     15894     15895     15894     15896     15894     15897
     15897     15898     15897     15899     15899     15900     15899     15901
     15901     15902     15901     15903     15901     15904     15904     15905
     15904     15906     15906     15907     15906     15908     15908     15909
     15908     15910     15908     15911     15911     15912     15911     15913
     15913     15914     15913     15915     15915     15916     15915     15917
     15915     15918     15918     15919     15918     15920     15920     15921
     15920     15922     15922     15923     15922     15924     15922     15925
     15925     15926     15925     15927     15925     15928     15928     15929
     15928     15930     15928     15931     15931     15932     15931     15933
     15931     15934     15934     15935     15934     15936     15934     15937
     15885     15886     15886     15888     15886     15887     15888     15889
     15888     15890     15888     15938     15938     15939     15938     15940
     15938     15941     15941     15942     15941     15943     15941     15944
     15944     15945     15944     15946     15944     15947     15947     15948
     15947     15949     15947     15950     15950     15951     15950     15952
     15950     15953     15953     15954     15953     15955     15953     15956
     15956     15957     15956     15958     15956     15959     15959     15960
     15959     15961     15959     15962     15962     15963     15962     15964
     15962     15965     15965     15966     15965     15967     15965     15968
     15968     15969     15968     15970     15968     15971     15971     15972
     15971     15973     15971     15974     15974     15975     15974     15976
     15974     15977     15977     15978     15977     15979     15977     15980
     15980     15981     15980     15982     15980     15983     15983     15984
     15983     15985     15983     15986     15987     15989     15987     15988
     15989     15990     15987     16033     16033     16034     16033     16035
     16033     16030     16030     16031     16030     16032     15987     15991
     15991     15992     15991     15993     15991     15994     15994     16025
     16025     16030     16025     16026     16026     16027     16026     16028
     16026     16029     15994     15995     15995     15996     15995     15997
     15997     15998     15997     15999     15997     16000     16000     16001
     16000     16023     16023     16024     16023     16025     16000     16002
     16002     16003     16002     16012     16012     16017     16017     16018
     16017     16019     16017     16020     16020     16021     16020     16022
     16020     16023     16012     16013     16013     16014     16013     16015
     16013     16016     16002     16004     16004     16005     16004     16006
     16004     16007     16007     16008     16007     16009     16007     16010
     16010     16011     16010     16012     16010     16036     16036     16037
     16036     16038     16038     16039     16038     16040     16038     16041
     16036     16042     16042     16043     16042     16044     16042     16045
     16045     16046     16045     16047     16045     16048     16048     16049
     16048     16050     16048     16051     16051     16052     16051     16053
     16053     16054     16053     16055     16053     16056     16051     16057
     16057     16058     16057     16059     16057     16060     16136     16137
     16136     16138     16136     16139     16136     16133     16133     16134
     16133     16135     16133     16130     16130     16131     16130     16132
     16130     16127     16127     16128     16127     16129     16127     16124
     16124     16125     16124     16126     16124     16121     16121     16122
     16121     16123     16121     16118     16118     16119     16118     16120
     16118     16115     16115     16116     16115     16117     16115     16112
     16112     16113     16112     16114     16112     16109     16109     16110
     16109     16111     16109     16106     16106     16107     16106     16108
     16106     16103     16103     16104     16103     16105     16103     16100
     16100     16101     16100     16102     16100     16098     16098     16099
     16096     16097     16096     16092     16092     16093     16092     16094
     16094     16095     16092     16090     16090     16091     16090     16085
     16085     16086     16085     16087     16085     16083     16083     16080
     16084     16080     16081     16080     16082     16080     16084     16077
     16077     16078     16077     16079     16077     16074     16074     16075
     16074     16076     16074     16061     16061     16070     16061     16066
     16061     16062     16070     16071     16070     16072     16070     16073
     16066     16067     16066     16068     16066     16069     16062     16063
     16062     16064     16062     16065     16090     16088     16088     16089
     16088     16140     16140     16142     16142     16143     16142     16144
     16142     16145     16145     16146     16145     16147     16145     16148
     16148     16149     16148     16150     16148     16151     16151     16152
     16151     16153     16151     16154     16154     16155     16154     16156
     16154     16157     16157     16158     16157     16159     16157     16160
     16160     16161     16160     16162     16160     16163     16163     16164
     16165     16166     16165     16167     16167     16168     16167     16169
     16167     16170     16170     16171     16170     16172     16170     16173
     16173     16174     16173     16175     16173     16176     16176     16177
     16176     16178     16176     16179     16179     16180     16179     16181
     16179     16182     16182     16183     16182     16184     16182     16185
     16185     16186     16185     16187     16185     16188     16188     16189
     16188     16190     16188     16191     16096     16098     16163     16165
     16140     16141     16192     16193     16192     16194     16192     16195
     16192     16196     16196     16197     16196     16198     16196     16199
     16199     16200     16199     16201     16199     16205     16207     16206
     16205     16202     16202     16206     16202     16203     16202     16204
     16207     16208     16207     16209     16207     16210     16210     16211
     16210     16218     16210     16212     16218     16219     16218     16220
     16218     16221     16212     16213     16213     16215     16213     16214
     16215     16216     16215     16217     16215     16227     16227     16228
     16227     16229     16227     16230     16230     16231     16230     16232
     16230     16233     16233     16234     16233     16235     16235     16236
     16235     16237     16237     16238     16237     16239     16237     16240
     16240     16241     16240     16242     16242     16243     16242     16244
     16244     16245     16244     16246     16244     16247     16247     16248
     16247     16249     16249     16250     16249     16251     16251     16252
     16251     16253     16251     16254     16254     16255     16254     16256
     16256     16257     16256     16258     16258     16259     16258     16260
     16258     16261     16261     16262     16261     16263     16261     16264
     16264     16265     16264     16266     16264     16267     16267     16268
     16267     16269     16267     16270     16270     16271     16270     16272
     16270     16273     16221     16222     16222     16224     16222     16223
     16224     16225     16224     16226     16224     16274     16274     16275
     16274     16276     16274     16277     16277     16278     16277     16279
     16277     16280     16280     16281     16280     16282     16280     16283
     16283     16284     16283     16285     16283     16286     16286     16287
     16286     16288     16286     16289     16289     16290     16289     16291
     16289     16292     16292     16293     16292     16294     16292     16295
     16295     16296     16295     16297     16295     16298     16298     16299
     16298     16300     16298     16301     16301     16302     16301     16303
     16301     16304     16304     16305     16304     16306     16304     16307
     16307     16308     16307     16309     16307     16310     16310     16311
     16310     16312     16310     16313     16313     16314     16313     16315
     16313     16316     16316     16317     16316     16318     16316     16319
     16319     16320     16319     16321     16319     16322     16323     16325
     16323     16324     16325     16326     16323     16369     16369     16370
     16369     16371     16369     16366     16366     16367     16366     16368
     16323     16327     16327     16328     16327     16329     16327     16330
     16330     16361     16361     16366     16361     16362     16362     16363
     16362     16364     16362     16365     16330     16331     16331     16332
     16331     16333     16333     16334     16333     16335     16333     16336
     16336     16337     16336     16359     16359     16360     16359     16361
     16336     16338     16338     16339     16338     16348     16348     16353
     16353     16354     16353     16355     16353     16356     16356     16357
     16356     16358     16356     16359     16348     16349     16349     16350
     16349     16351     16349     16352     16338     16340     16340     16341
     16340     16342     16340     16343     16343     16344     16343     16345
     16343     16346     16346     16347     16346     16348     16346     16372
     16372     16373     16372     16374     16374     16375     16374     16376
     16374     16377     16372     16378     16378     16379     16378     16380
     16378     16381     16381     16382     16381     16383     16381     16384
     16384     16385     16384     16386     16384     16387     16387     16388
     16387     16389     16389     16390     16389     16391     16389     16392
     16387     16393     16393     16394     16393     16395     16393     16396
     16397     16401     16397     16405     16397     16409     16401     16402
     16401     16403     16401     16404     16405     16406     16405     16407
     16405     16408     16409     16410     16409     16411     16409     16412
     16397     16398     16398     16399     16398     16400     16398     16413
     16413     16414     16413     16415     16413     16419     16420     16421
     16419     16416     16416     16420     16416     16417     16416     16418
     16421     16422     16421     16423     16421     16424     16424     16425
     16424     16432     16424     16426     16432     16433     16432     16434
     16432     16435     16426     16427     16427     16429     16427     16428
     16429     16430     16429     16431     16429     16441     16441     16442
     16441     16443     16441     16444     16444     16445     16444     16446
     16444     16447     16447     16448     16447     16449     16447     16450
     16450     16451     16450     16452     16450     16453     16453     16454
     16453     16455     16453     16456     16456     16457     16456     16458
     16456     16459     16459     16460     16459     16461     16461     16462
     16461     16463     16463     16464     16463     16465     16463     16466
     16466     16467     16466     16468     16466     16469     16469     16470
     16469     16471     16469     16472     16472     16473     16472     16474
     16472     16475     16475     16476     16475     16477     16475     16478
     16478     16479     16478     16480     16478     16481     16481     16482
     16481     16483     16481     16484     16484     16485     16484     16486
     16484     16487     16435     16436     16436     16438     16436     16437
     16438     16439     16438     16440     16438     16488     16488     16489
     16488     16490     16488     16491     16491     16492     16491     16493
     16491     16494     16494     16495     16494     16496     16494     16497
     16497     16498     16497     16499     16497     16500     16500     16501
     16500     16502     16500     16503     16503     16504     16503     16505
     16503     16506     16506     16507     16506     16508     16506     16509
     16509     16510     16509     16511     16509     16512     16512     16513
     16512     16514     16512     16515     16515     16516     16515     16517
     16515     16518     16518     16519     16518     16520     16518     16521
     16521     16522     16521     16523     16521     16524     16524     16525
     16524     16526     16524     16527     16527     16528     16527     16529
     16527     16530     16531     16535     16531     16539     16531     16543
     16535     16536     16535     16537     16535     16538     16539     16540
     16539     16541     16539     16542     16543     16544     16543     16545
     16543     16546     16531     16532     16532     16533     16532     16534
     16532     16547     16547     16548     16547     16549     16547     16553
     16554     16555     16553     16550     16550     16554     16550     16551
     16550     16552     16555     16556     16555     16557     16555     16558
     16558     16559     16558     16566     16558     16560     16566     16567
     16566     16568     16566     16569     16560     16561     16561     16563
     16561     16562     16563     16564     16563     16565     16563     16575
     16575     16576     16575     16577     16575     16578     16578     16579
     16578     16580     16578     16581     16581     16582     16581     16583
     16583     16584     16583     16585     16585     16586     16585     16587
     16585     16588     16588     16589     16588     16590     16590     16591
     16590     16592     16592     16593     16592     16594     16592     16595
     16595     16596     16595     16597     16597     16598     16597     16599
     16599     16600     16599     16601     16599     16602     16602     16603
     16602     16604     16604     16605     16604     16606     16606     16607
     16606     16608     16606     16609     16609     16610     16609     16611
     16609     16612     16612     16613     16612     16614     16612     16615
     16615     16616     16615     16617     16615     16618     16618     16619
     16618     16620     16618     16621     16569     16570     16570     16572
     16570     16571     16572     16573     16572     16574     16572     16622
     16622     16623     16622     16624     16622     16625     16625     16626
     16625     16627     16625     16628     16628     16629     16628     16630
     16628     16631     16631     16632     16631     16633     16631     16634
     16634     16635     16634     16636     16634     16637     16637     16638
     16637     16639     16637     16640     16640     16641     16640     16642
     16640     16643     16643     16644     16643     16645     16643     16646
     16646     16647     16646     16648     16646     16649     16649     16650
     16649     16651     16649     16652     16652     16653     16652     16654
     16652     16655     16655     16656     16655     16657     16655     16658
     16658     16659     16658     16660     16658     16661     16661     16662
     16661     16663     16661     16664     16664     16665     16664     16666
     16664     16667     16667     16668     16667     16669     16667     16670
     16671     16672     16671     16676     16671     16680     16672     16673
     16672     16674     16672     16675     16676     16677     16676     16678
     16676     16679     16680     16681     16680     16682     16680     16683
     16671     16684     16684     16685     16684     16686     16684     16687
     16687     16688     16687     16689     16687     16693     16694     16695
     16693     16690     16690     16694     16690     16691     16690     16692
     16695     16696     16695     16697     16695     16698     16698     16699
     16698     16706     16698     16700     16706     16707     16706     16708
     16706     16709     16700     16701     16701     16703     16701     16702
     16703     16704     16703     16705     16703     16715     16715     16716
     16715     16717     16715     16718     16718     16719     16718     16720
     16718     16721     16721     16722     16721     16723     16721     16724
     16724     16725     16724     16726     16724     16727     16727     16728
     16727     16729     16727     16730     16730     16731     16730     16732
     16730     16733     16733     16734     16733     16735     16735     16736
     16735     16737     16737     16738     16737     16739     16737     16740
     16740     16741     16740     16742     16742     16743     16742     16744
     16744     16745     16744     16746     16744     16747     16747     16748
     16747     16749     16747     16750     16750     16751     16750     16752
     16750     16753     16753     16754     16753     16755     16753     16756
     16756     16757     16756     16758     16756     16759     16709     16710
     16710     16712     16710     16711     16712     16713     16712     16714
     16712     16760     16760     16761     16760     16762     16760     16763
     16763     16764     16763     16765     16763     16766     16766     16767
     16766     16768     16766     16769     16769     16770     16769     16771
     16769     16772     16772     16773     16772     16774     16772     16775
     16775     16776     16775     16777     16775     16778     16778     16779
     16778     16780     16778     16781     16781     16782     16781     16783
     16781     16784     16784     16785     16784     16786     16784     16787
     16787     16788     16787     16789     16787     16790     16790     16791
     16790     16792     16790     16793     16793     16794     16793     16795
     16793     16796     16796     16797     16796     16798     16796     16799
     16799     16800     16799     16801     16799     16802     16802     16803
     16802     16804     16802     16805     16805     16806     16805     16807
     16805     16808     16809     16811     16809     16810     16811     16812
     16809     16855     16855     16856     16855     16857     16855     16852
     16852     16853     16852     16854     16809     16813     16813     16814
     16813     16815     16813     16816     16816     16847     16847     16852
     16847     16848     16848     16849     16848     16850     16848     16851
     16816     16817     16817     16818     16817     16819     16819     16820
     16819     16821     16819     16822     16822     16823     16822     16845
     16845     16846     16845     16847     16822     16824     16824     16825
     16824     16834     16834     16839     16839     16840     16839     16841
     16839     16842     16842     16843     16842     16844     16842     16845
     16834     16835     16835     16836     16835     16837     16835     16838
     16824     16826     16826     16827     16826     16828     16826     16829
     16829     16830     16829     16831     16829     16832     16832     16833
     16832     16834     16832     16858     16858     16859     16858     16860
     16860     16861     16860     16862     16860     16863     16858     16864
     16864     16865     16864     16866     16864     16867     16867     16868
     16867     16869     16867     16870     16870     16871     16870     16872
     16870     16873     16873     16874     16873     16875     16875     16876
     16875     16877     16875     16878     16873     16879     16879     16880
     16879     16881     16879     16882     16883     16884     16883     16885
     16883     16886     16883     16887     16887     16888     16887     16889
     16887     16890     16890     16891     16890     16892     16890     16896
     16898     16897     16896     16893     16893     16897     16893     16894
     16893     16895     16898     16899     16898     16900     16898     16901
     16901     16902     16901     16909     16901     16903     16909     16910
     16909     16911     16909     16912     16903     16904     16904     16906
     16904     16905     16906     16907     16906     16908     16906     16918
     16918     16919     16918     16920     16918     16921     16921     16922
     16921     16923     16921     16924     16924     16925     16924     16926
     16924     16927     16927     16928     16927     16929     16927     16930
     16930     16931     16930     16932     16930     16933     16933     16934
     16933     16935     16933     16936     16936     16937     16936     16938
     16938     16939     16938     16940     16940     16941     16940     16942
     16940     16943     16943     16944     16943     16945     16943     16946
     16946     16947     16946     16948     16946     16949     16949     16950
     16949     16951     16949     16952     16952     16953     16952     16954
     16952     16955     16955     16956     16955     16957     16955     16958
     16958     16959     16958     16960     16958     16961     16961     16962
     16961     16963     16961     16964     16912     16913     16913     16915
     16913     16914     16915     16916     16915     16917     16915     16965
     16965     16966     16965     16967     16965     16968     16968     16969
     16968     16970     16968     16971     16971     16972     16971     16973
     16971     16974     16974     16975     16974     16976     16974     16977
     16977     16978     16977     16979     16977     16980     16980     16981
     16980     16982     16980     16983     16983     16984     16983     16985
     16983     16986     16986     16987     16986     16988     16986     16989
     16989     16990     16989     16991     16989     16992     16992     16993
     16992     16994     16992     16995     16995     16996     16995     16997
     16995     16998     16998     16999     16998     17000     16998     17001
     17001     17002     17001     17003     17001     17004     17004     17005
     17004     17006     17004     17007     17007     17008     17007     17009
     17007     17010     17010     17011     17010     17012     17010     17013
     17014     17015     17014     17016     17014     17017     17014     17018
     17018     17019     17018     17020     17018     17021     17021     17022
     17021     17023     17021     17027     17029     17028     17027     17024
     17024     17028     17024     17025     17024     17026     17029     17030
     17029     17031     17029     17032     17032     17033     17032     17040
     17032     17034     17040     17041     17040     17042     17040     17043
     17034     17035     17035     17037     17035     17036     17037     17038
     17037     17039     17037     17049     17049     17050     17049     17051
     17049     17052     17052     17053     17052     17054     17052     17055
     17055     17056     17055     17057     17057     17058     17057     17059
     17059     17060     17059     17061     17059     17062     17062     17063
     17062     17064     17064     17065     17064     17066     17066     17067
     17066     17068     17066     17069     17069     17070     17069     17071
     17071     17072     17071     17073     17073     17074     17073     17075
     17073     17076     17076     17077     17076     17078     17078     17079
     17078     17080     17080     17081     17080     17082     17080     17083
     17083     17084     17083     17085     17083     17086     17086     17087
     17086     17088     17086     17089     17089     17090     17089     17091
     17089     17092     17092     17093     17092     17094     17092     17095
     17043     17044     17044     17046     17044     17045     17046     17047
     17046     17048     17046     17096     17096     17097     17096     17098
     17096     17099     17099     17100     17099     17101     17099     17102
     17102     17103     17102     17104     17102     17105     17105     17106
     17105     17107     17105     17108     17108     17109     17108     17110
     17108     17111     17111     17112     17111     17113     17111     17114
     17114     17115     17114     17116     17114     17117     17117     17118
     17117     17119     17117     17120     17120     17121     17120     17122
     17120     17123     17123     17124     17123     17125     17123     17126
     17126     17127     17126     17128     17126     17129     17129     17130
     17129     17131     17129     17132     17132     17133     17132     17134
     17132     17135     17135     17136     17135     17137     17135     17138
     17138     17139     17138     17140     17138     17141     17141     17142
     17141     17143     17141     17144     17145     17147     17145     17146
     17147     17148     17145     17191     17191     17192     17191     17193
     17191     17188     17188     17189     17188     17190     17145     17149
     17149     17150     17149     17151     17149     17152     17152     17183
     17183     17188     17183     17184     17184     17185     17184     17186
     17184     17187     17152     17153     17153     17154     17153     17155
     17155     17156     17155     17157     17155     17158     17158     17159
     17158     17181     17181     17182     17181     17183     17158     17160
     17160     17161     17160     17170     17170     17175     17175     17176
     17175     17177     17175     17178     17178     17179     17178     17180
     17178     17181     17170     17171     17171     17172     17171     17173
     17171     17174     17160     17162     17162     17163     17162     17164
     17162     17165     17165     17166     17165     17167     17165     17168
     17168     17169     17168     17170     17168     17194     17194     17195
     17194     17196     17196     17197     17196     17198     17196     17199
     17194     17200     17200     17201     17200     17202     17200     17203
     17203     17204     17203     17205     17203     17206     17206     17207
     17206     17208     17206     17209     17209     17210     17209     17211
     17211     17212     17211     17213     17211     17214     17209     17215
     17215     17216     17215     17217     17215     17218     17219     17223
     17219     17227     17219     17231     17223     17224     17223     17225
     17223     17226     17227     17228     17227     17229     17227     17230
     17231     17232     17231     17233     17231     17234     17219     17220
     17220     17221     17220     17222     17220     17235     17235     17236
     17235     17237     17235     17241     17242     17243     17241     17238
     17238     17242     17238     17239     17238     17240     17243     17244
     17243     17245     17243     17246     17246     17247     17246     17254
     17246     17248     17254     17255     17254     17256     17254     17257
     17248     17249     17249     17251     17249     17250     17251     17252
     17251     17253     17251     17263     17263     17264     17263     17265
     17263     17266     17266     17267     17266     17268     17266     17269
     17269     17270     17269     17271     17271     17272     17271     17273
     17273     17274     17273     17275     17273     17276     17276     17277
     17276     17278     17278     17279     17278     17280     17280     17281
     17280     17282     17280     17283     17283     17284     17283     17285
     17285     17286     17285     17287     17287     17288     17287     17289
     17287     17290     17290     17291     17290     17292     17292     17293
     17292     17294     17294     17295     17294     17296     17294     17297
     17297     17298     17297     17299     17297     17300     17300     17301
     17300     17302     17300     17303     17303     17304     17303     17305
     17303     17306     17306     17307     17306     17308     17306     17309
     17257     17258     17258     17260     17258     17259     17260     17261
     17260     17262     17260     17310     17310     17311     17310     17312
     17310     17313     17313     17314     17313     17315     17313     17316
     17316     17317     17316     17318     17316     17319     17319     17320
     17319     17321     17319     17322     17322     17323     17322     17324
     17322     17325     17325     17326     17325     17327     17325     17328
     17328     17329     17328     17330     17328     17331     17331     17332
     17331     17333     17331     17334     17334     17335     17334     17336
     17334     17337     17337     17338     17337     17339     17337     17340
     17340     17341     17340     17342     17340     17343     17343     17344
     17343     17345     17343     17346     17346     17347     17346     17348
     17346     17349     17349     17350     17349     17351     17349     17352
     17352     17353     17352     17354     17352     17355     17355     17356
     17355     17357     17355     17358     17359     17361     17359     17360
     17361     17362     17359     17405     17405     17406     17405     17407
     17405     17402     17402     17403     17402     17404     17359     17363
     17363     17364     17363     17365     17363     17366     17366     17397
     17397     17402     17397     17398     17398     17399     17398     17400
     17398     17401     17366     17367     17367     17368     17367     17369
     17369     17370     17369     17371     17369     17372     17372     17373
     17372     17395     17395     17396     17395     17397     17372     17374
     17374     17375     17374     17384     17384     17389     17389     17390
     17389     17391     17389     17392     17392     17393     17392     17394
     17392     17395     17384     17385     17385     17386     17385     17387
     17385     17388     17374     17376     17376     17377     17376     17378
     17376     17379     17379     17380     17379     17381     17379     17382
     17382     17383     17382     17384     17382     17408     17408     17409
     17408     17410     17410     17411     17410     17412     17410     17413
     17408     17414     17414     17415     17414     17416     17414     17417
     17417     17418     17417     17419     17417     17420     17420     17421
     17420     17422     17420     17423     17423     17424     17423     17425
     17425     17426     17425     17427     17425     17428     17423     17429
     17429     17430     17429     17431     17429     17432     17433     17435
     17433     17434     17435     17436     17433     17479     17479     17480
     17479     17481     17479     17476     17476     17477     17476     17478
     17433     17437     17437     17438     17437     17439     17437     17440
     17440     17471     17471     17476     17471     17472     17472     17473
     17472     17474     17472     17475     17440     17441     17441     17442
     17441     17443     17443     17444     17443     17445     17443     17446
     17446     17447     17446     17469     17469     17470     17469     17471
     17446     17448     17448     17449     17448     17458     17458     17463
     17463     17464     17463     17465     17463     17466     17466     17467
     17466     17468     17466     17469     17458     17459     17459     17460
     17459     17461     17459     17462     17448     17450     17450     17451
     17450     17452     17450     17453     17453     17454     17453     17455
     17453     17456     17456     17457     17456     17458     17456     17482
     17482     17483     17482     17484     17484     17485     17484     17486
     17484     17487     17482     17488     17488     17489     17488     17490
     17488     17491     17491     17492     17491     17493     17491     17494
     17494     17495     17494     17496     17494     17497     17497     17498
     17497     17499     17499     17500     17499     17501     17499     17502
     17497     17503     17503     17504     17503     17505     17503     17506
     17507     17508     17507     17509     17507     17510     17507     17511
     17511     17512     17511     17513     17511     17514     17514     17515
     17514     17516     17514     17520     17522     17521     17520     17517
     17517     17521     17517     17518     17517     17519     17522     17523
     17522     17524     17522     17525     17525     17526     17525     17533
     17525     17527     17533     17534     17533     17535     17533     17536
     17527     17528     17528     17530     17528     17529     17530     17531
     17530     17532     17530     17542     17542     17543     17542     17544
     17542     17545     17545     17546     17545     17547     17545     17548
     17548     17549     17548     17550     17550     17551     17550     17552
     17552     17553     17552     17554     17552     17555     17555     17556
     17555     17557     17557     17558     17557     17559     17559     17560
     17559     17561     17559     17562     17562     17563     17562     17564
     17564     17565     17564     17566     17566     17567     17566     17568
     17566     17569     17569     17570     17569     17571     17571     17572
     17571     17573     17573     17574     17573     17575     17573     17576
     17576     17577     17576     17578     17576     17579     17579     17580
     17579     17581     17579     17582     17582     17583     17582     17584
     17582     17585     17585     17586     17585     17587     17585     17588
     17536     17537     17537     17539     17537     17538     17539     17540
     17539     17541     17539     17589     17589     17590     17589     17591
     17589     17592     17592     17593     17592     17594     17592     17595
     17595     17596     17595     17597     17595     17598     17598     17599
     17598     17600     17598     17601     17601     17602     17601     17603
     17601     17604     17604     17605     17604     17606     17604     17607
     17607     17608     17607     17609     17607     17610     17610     17611
     17610     17612     17610     17613     17613     17614     17613     17615
     17613     17616     17616     17617     17616     17618     17616     17619
     17619     17620     17619     17621     17619     17622     17622     17623
     17622     17624     17622     17625     17625     17626     17625     17627
     17625     17628     17628     17629     17628     17630     17628     17631
     17631     17632     17631     17633     17631     17634     17634     17635
     17634     17636     17634     17637     17658     17659     17658     17654
     17658     17638     17658     17663     17638     17639     17638     17640
     17640     17641     17638     17642     17642     17643     17642     17644
     17644     17645     17642     17646     17646     17647     17646     17648
     17648     17649     17646     17650     17650     17651     17650     17654
     17654     17655     17654     17656     17656     17657     17650     17652
     17652     17653     17663     17660     17660     17664     17660     17661
     17660     17662     17664     17665     17665     17666     17665     17667
     17665     17668     17668     17669     17668     17676     17668     17670
     17676     17677     17676     17678     17676     17679     17670     17671
     17671     17673     17671     17672     17673     17674     17673     17675
     17673     17685     17685     17686     17685     17687     17685     17688
     17688     17689     17688     17690     17688     17691     17691     17692
     17691     17693     17693     17694     17693     17695     17695     17696
     17695     17697     17695     17698     17698     17699     17698     17700
     17700     17701     17700     17702     17702     17703     17702     17704
     17702     17705     17705     17706     17705     17707     17707     17708
     17707     17709     17709     17710     17709     17711     17709     17712
     17712     17713     17712     17714     17714     17715     17714     17716
     17716     17717     17716     17718     17716     17719     17719     17720
     17719     17721     17719     17722     17722     17723     17722     17724
     17722     17725     17725     17726     17725     17727     17725     17728
     17728     17729     17728     17730     17728     17731     17679     17680
     17680     17682     17680     17681     17682     17683     17682     17684
     17682     17732     17732     17733     17732     17734     17732     17735
     17735     17736     17735     17737     17735     17738     17738     17739
     17738     17740     17738     17741     17741     17742     17741     17743
     17741     17744     17744     17745     17744     17746     17744     17747
     17747     17748     17747     17749     17747     17750     17750     17751
     17750     17752     17750     17753     17753     17754     17753     17755
     17753     17756     17756     17757     17756     17758     17756     17759
     17759     17760     17759     17761     17759     17762     17762     17763
     17762     17764     17762     17765     17765     17766     17765     17767
     17765     17768     17768     17769     17768     17770     17768     17771
     17771     17772     17771     17773     17771     17774     17774     17775
     17774     17776     17774     17777     17777     17778     17777     17779
     17777     17780     17781     17783     17781     17782     17783     17784
     17781     17827     17827     17828     17827     17829     17827     17824
     17824     17825     17824     17826     17781     17785     17785     17786
     17785     17787     17785     17788     17788     17819     17819     17824
     17819     17820     17820     17821     17820     17822     17820     17823
     17788     17789     17789     17790     17789     17791     17791     17792
     17791     17793     17791     17794     17794     17795     17794     17817
     17817     17818     17817     17819     17794     17796     17796     17797
     17796     17806     17806     17811     17811     17812     17811     17813
     17811     17814     17814     17815     17814     17816     17814     17817
     17806     17807     17807     17808     17807     17809     17807     17810
     17796     17798     17798     17799     17798     17800     17798     17801
     17801     17802     17801     17803     17801     17804     17804     17805
     17804     17806     17804     17830     17830     17831     17830     17832
     17832     17833     17832     17834     17832     17835     17830     17836
     17836     17837     17836     17838     17836     17839     17839     17840
     17839     17841     17839     17842     17842     17843     17842     17844
     17842     17845     17845     17846     17845     17847     17847     17848
     17847     17849     17847     17850     17845     17851     17851     17852
     17851     17853     17851     17854     17875     17876     17875     17871
     17875     17855     17875     17880     17855     17856     17855     17857
     17857     17858     17855     17859     17859     17860     17859     17861
     17861     17862     17859     17863     17863     17864     17863     17865
     17865     17866     17863     17867     17867     17868     17867     17871
     17871     17872     17871     17873     17873     17874     17867     17869
     17869     17870     17880     17877     17877     17881     17877     17878
     17877     17879     17881     17882     17882     17883     17882     17884
     17882     17885     17885     17886     17885     17893     17885     17887
     17893     17894     17893     17895     17893     17896     17887     17888
     17888     17890     17888     17889     17890     17891     17890     17892
     17890     17902     17902     17903     17902     17904     17902     17905
     17905     17906     17905     17907     17905     17908     17908     17909
     17908     17910     17910     17911     17910     17912     17912     17913
     17912     17914     17912     17915     17915     17916     17915     17917
     17917     17918     17917     17919     17919     17920     17919     17921
     17919     17922     17922     17923     17922     17924     17924     17925
     17924     17926     17926     17927     17926     17928     17926     17929
     17929     17930     17929     17931     17931     17932     17931     17933
     17933     17934     17933     17935     17933     17936     17936     17937
     17936     17938     17936     17939     17939     17940     17939     17941
     17939     17942     17942     17943     17942     17944     17942     17945
     17945     17946     17945     17947     17945     17948     17896     17897
     17897     17899     17897     17898     17899     17900     17899     17901
     17899     17949     17949     17950     17949     17951     17949     17952
     17952     17953     17952     17954     17952     17955     17955     17956
     17955     17957     17955     17958     17958     17959     17958     17960
     17958     17961     17961     17962     17961     17963     17961     17964
     17964     17965     17964     17966     17964     17967     17967     17968
     17967     17969     17967     17970     17970     17971     17970     17972
     17970     17973     17973     17974     17973     17975     17973     17976
     17976     17977     17976     17978     17976     17979     17979     17980
     17979     17981     17979     17982     17982     17983     17982     17984
     17982     17985     17985     17986     17985     17987     17985     17988
     17988     17989     17988     17990     17988     17991     17991     17992
     17991     17993     17991     17994     17994     17995     17994     17996
     17994     17997     17998     17999     17998     18000     17998     18001
     17998     18002     18002     18003     18002     18004     18002     18005
     18005     18006     18005     18007     18005     18011     18013     18012
     18011     18008     18008     18012     18008     18009     18008     18010
     18013     18014     18013     18015     18013     18016     18016     18017
     18016     18024     18016     18018     18024     18025     18024     18026
     18024     18027     18018     18019     18019     18021     18019     18020
     18021     18022     18021     18023     18021     18033     18033     18034
     18033     18035     18033     18036     18036     18037     18036     18038
     18036     18039     18039     18040     18039     18041     18041     18042
     18041     18043     18043     18044     18043     18045     18043     18046
     18046     18047     18046     18048     18048     18049     18048     18050
     18050     18051     18050     18052     18050     18053     18053     18054
     18053     18055     18055     18056     18055     18057     18057     18058
     18057     18059     18057     18060     18060     18061     18060     18062
     18062     18063     18062     18064     18064     18065     18064     18066
     18064     18067     18067     18068     18067     18069     18067     18070
     18070     18071     18070     18072     18070     18073     18073     18074
     18073     18075     18073     18076     18076     18077     18076     18078
     18076     18079     18027     18028     18028     18030     18028     18029
     18030     18031     18030     18032     18030     18080     18080     18081
     18080     18082     18080     18083     18083     18084     18083     18085
     18083     18086     18086     18087     18086     18088     18086     18089
     18089     18090     18089     18091     18089     18092     18092     18093
     18092     18094     18092     18095     18095     18096     18095     18097
     18095     18098     18098     18099     18098     18100     18098     18101
     18101     18102     18101     18103     18101     18104     18104     18105
     18104     18106     18104     18107     18107     18108     18107     18109
     18107     18110     18110     18111     18110     18112     18110     18113
     18113     18114     18113     18115     18113     18116     18116     18117
     18116     18118     18116     18119     18119     18120     18119     18121
     18119     18122     18122     18123     18122     18124     18122     18125
     18125     18126     18125     18127     18125     18128     18204     18205
     18204     18206     18204     18207     18204     18201     18201     18202
     18201     18203     18201     18198     18198     18199     18198     18200
     18198     18195     18195     18196     18195     18197     18195     18192
     18192     18193     18192     18194     18192     18189     18189     18190
     18189     18191     18189     18186     18186     18187     18186     18188
     18186     18183     18183     18184     18183     18185     18183     18180
     18180     18181     18180     18182     18180     18177     18177     18178
     18177     18179     18177     18174     18174     18175     18174     18176
     18174     18171     18171     18172     18171     18173     18171     18168
     18168     18169     18168     18170     18168     18166     18166     18167
     18164     18165     18164     18160     18160     18161     18160     18162
     18162     18163     18160     18158     18158     18159     18158     18153
     18153     18154     18153     18155     18153     18151     18151     18148
     18152     18148     18149     18148     18150     18148     18152     18145
     18145     18146     18145     18147     18145     18142     18142     18143
     18142     18144     18142     18129     18129     18138     18129     18134
     18129     18130     18138     18139     18138     18140     18138     18141
     18134     18135     18134     18136     18134     18137     18130     18131
     18130     18132     18130     18133     18158     18156     18156     18157
     18156     18208     18208     18210     18210     18211     18210     18212
     18210     18213     18213     18214     18213     18215     18213     18216
     18216     18217     18216     18218     18216     18219     18219     18220
     18219     18221     18219     18222     18222     18223     18222     18224
     18222     18225     18225     18226     18225     18227     18225     18228
     18228     18229     18228     18230     18228     18231     18231     18232
     18233     18234     18233     18235     18235     18236     18235     18237
     18235     18238     18238     18239     18238     18240     18238     18241
     18241     18242     18241     18243     18241     18244     18244     18245
     18244     18246     18244     18247     18247     18248     18247     18249
     18247     18250     18250     18251     18250     18252     18250     18253
     18253     18254     18253     18255     18253     18256     18256     18257
     18256     18258     18256     18259     18164     18166     18231     18233
     18208     18209     18335     18336     18335     18337     18335     18338
     18335     18332     18332     18333     18332     18334     18332     18329
     18329     18330     18329     18331     18329     18326     18326     18327
     18326     18328     18326     18323     18323     18324     18323     18325
     18323     18320     18320     18321     18320     18322     18320     18317
     18317     18318     18317     18319     18317     18314     18314     18315
     18314     18316     18314     18311     18311     18312     18311     18313
     18311     18308     18308     18309     18308     18310     18308     18305
     18305     18306     18305     18307     18305     18302     18302     18303
     18302     18304     18302     18299     18299     18300     18299     18301
     18299     18297     18297     18298     18295     18296     18295     18291
     18291     18292     18291     18293     18293     18294     18291     18289
     18289     18290     18289     18284     18284     18285     18284     18286
     18284     18282     18282     18279     18283     18279     18280     18279
     18281     18279     18283     18276     18276     18277     18276     18278
     18276     18273     18273     18274     18273     18275     18273     18260
     18260     18269     18260     18265     18260     18261     18269     18270
     18269     18271     18269     18272     18265     18266     18265     18267
     18265     18268     18261     18262     18261     18263     18261     18264
     18289     18287     18287     18288     18287     18339     18339     18341
     18341     18342     18341     18343     18341     18344     18344     18345
     18344     18346     18344     18347     18347     18348     18347     18349
     18347     18350     18350     18351     18350     18352     18350     18353
     18353     18354     18353     18355     18353     18356     18356     18357
     18356     18358     18356     18359     18359     18360     18359     18361
     18359     18362     18362     18363     18364     18365     18364     18366
     18366     18367     18366     18368     18366     18369     18369     18370
     18369     18371     18369     18372     18372     18373     18372     18374
     18372     18375     18375     18376     18375     18377     18375     18378
     18378     18379     18378     18380     18378     18381     18381     18382
     18381     18383     18381     18384     18384     18385     18384     18386
     18384     18387     18387     18388     18387     18389     18387     18390
     18295     18297     18362     18364     18339     18340     18391     18392
     18391     18393     18391     18394     18391     18395     18395     18396
     18395     18397     18395     18398     18398     18399     18398     18400
     18398     18404     18406     18405     18404     18401     18401     18405
     18401     18402     18401     18403     18406     18407     18406     18408
     18406     18409     18409     18410     18409     18417     18409     18411
     18417     18418     18417     18419     18417     18420     18411     18412
     18412     18414     18412     18413     18414     18415     18414     18416
     18414     18426     18426     18427     18426     18428     18426     18429
     18429     18430     18429     18431     18429     18432     18432     18433
     18432     18434     18434     18435     18434     18436     18436     18437
     18436     18438     18436     18439     18439     18440     18439     18441
     18441     18442     18441     18443     18443     18444     18443     18445
     18443     18446     18446     18447     18446     18448     18448     18449
     18448     18450     18450     18451     18450     18452     18450     18453
     18453     18454     18453     18455     18455     18456     18455     18457
     18457     18458     18457     18459     18457     18460     18460     18461
     18460     18462     18460     18463     18463     18464     18463     18465
     18463     18466     18466     18467     18466     18468     18466     18469
     18469     18470     18469     18471     18469     18472     18420     18421
     18421     18423     18421     18422     18423     18424     18423     18425
     18423     18473     18473     18474     18473     18475     18473     18476
     18476     18477     18476     18478     18476     18479     18479     18480
     18479     18481     18479     18482     18482     18483     18482     18484
     18482     18485     18485     18486     18485     18487     18485     18488
     18488     18489     18488     18490     18488     18491     18491     18492
     18491     18493     18491     18494     18494     18495     18494     18496
     18494     18497     18497     18498     18497     18499     18497     18500
     18500     18501     18500     18502     18500     18503     18503     18504
     18503     18505     18503     18506     18506     18507     18506     18508
     18506     18509     18509     18510     18509     18511     18509     18512
     18512     18513     18512     18514     18512     18515     18515     18516
     18515     18517     18515     18518     18518     18519     18518     18520
     18518     18521     18522     18523     18522     18527     18522     18531
     18523     18524     18523     18525     18523     18526     18527     18528
     18527     18529     18527     18530     18531     18532     18531     18533
     18531     18534     18522     18535     18535     18536     18535     18537
     18535     18538     18538     18539     18538     18540     18538     18544
     18545     18546     18544     18541     18541     18545     18541     18542
     18541     18543     18546     18547     18546     18548     18546     18549
     18549     18550     18549     18557     18549     18551     18557     18558
     18557     18559     18557     18560     18551     18552     18552     18554
     18552     18553     18554     18555     18554     18556     18554     18566
     18566     18567     18566     18568     18566     18569     18569     18570
     18569     18571     18569     18572     18572     18573     18572     18574
     18572     18575     18575     18576     18575     18577     18575     18578
     18578     18579     18578     18580     18578     18581     18581     18582
     18581     18583     18581     18584     18584     18585     18584     18586
     18586     18587     18586     18588     18588     18589     18588     18590
     18588     18591     18591     18592     18591     18593     18593     18594
     18593     18595     18595     18596     18595     18597     18595     18598
     18598     18599     18598     18600     18598     18601     18601     18602
     18601     18603     18601     18604     18604     18605     18604     18606
     18604     18607     18607     18608     18607     18609     18607     18610
     18560     18561     18561     18563     18561     18562     18563     18564
     18563     18565     18563     18611     18611     18612     18611     18613
     18611     18614     18614     18615     18614     18616     18614     18617
     18617     18618     18617     18619     18617     18620     18620     18621
     18620     18622     18620     18623     18623     18624     18623     18625
     18623     18626     18626     18627     18626     18628     18626     18629
     18629     18630     18629     18631     18629     18632     18632     18633
     18632     18634     18632     18635     18635     18636     18635     18637
     18635     18638     18638     18639     18638     18640     18638     18641
     18641     18642     18641     18643     18641     18644     18644     18645
     18644     18646     18644     18647     18647     18648     18647     18649
     18647     18650     18650     18651     18650     18652     18650     18653
     18653     18654     18653     18655     18653     18656     18656     18657
     18656     18658     18656     18659     18735     18736     18735     18737
     18735     18738     18735     18732     18732     18733     18732     18734
     18732     18729     18729     18730     18729     18731     18729     18726
     18726     18727     18726     18728     18726     18723     18723     18724
     18723     18725     18723     18720     18720     18721     18720     18722
     18720     18717     18717     18718     18717     18719     18717     18714
     18714     18715     18714     18716     18714     18711     18711     18712
     18711     18713     18711     18708     18708     18709     18708     18710
     18708     18705     18705     18706     18705     18707     18705     18702
     18702     18703     18702     18704     18702     18699     18699     18700
     18699     18701     18699     18697     18697     18698     18695     18696
     18695     18691     18691     18692     18691     18693     18693     18694
     18691     18689     18689     18690     18689     18684     18684     18685
     18684     18686     18684     18682     18682     18679     18683     18679
     18680     18679     18681     18679     18683     18676     18676     18677
     18676     18678     18676     18673     18673     18674     18673     18675
     18673     18660     18660     18669     18660     18665     18660     18661
     18669     18670     18669     18671     18669     18672     18665     18666
     18665     18667     18665     18668     18661     18662     18661     18663
     18661     18664     18689     18687     18687     18688     18687     18739
     18739     18741     18741     18742     18741     18743     18741     18744
     18744     18745     18744     18746     18744     18747     18747     18748
     18747     18749     18747     18750     18750     18751     18750     18752
     18750     18753     18753     18754     18753     18755     18753     18756
     18756     18757     18756     18758     18756     18759     18759     18760
     18759     18761     18759     18762     18762     18763     18764     18765
     18764     18766     18766     18767     18766     18768     18766     18769
     18769     18770     18769     18771     18769     18772     18772     18773
     18772     18774     18772     18775     18775     18776     18775     18777
     18775     18778     18778     18779     18778     18780     18778     18781
     18781     18782     18781     18783     18781     18784     18784     18785
     18784     18786     18784     18787     18787     18788     18787     18789
     18787     18790     18695     18697     18762     18764     18739     18740
     18866     18867     18866     18868     18866     18869     18866     18863
     18863     18864     18863     18865     18863     18860     18860     18861
     18860     18862     18860     18857     18857     18858     18857     18859
     18857     18854     18854     18855     18854     18856     18854     18851
     18851     18852     18851     18853     18851     18848     18848     18849
     18848     18850     18848     18845     18845     18846     18845     18847
     18845     18842     18842     18843     18842     18844     18842     18839
     18839     18840     18839     18841     18839     18836     18836     18837
     18836     18838     18836     18833     18833     18834     18833     18835
     18833     18830     18830     18831     18830     18832     18830     18828
     18828     18829     18826     18827     18826     18822     18822     18823
     18822     18824     18824     18825     18822     18820     18820     18821
     18820     18815     18815     18816     18815     18817     18815     18813
     18813     18810     18814     18810     18811     18810     18812     18810
     18814     18807     18807     18808     18807     18809     18807     18804
     18804     18805     18804     18806     18804     18791     18791     18800
     18791     18796     18791     18792     18800     18801     18800     18802
     18800     18803     18796     18797     18796     18798     18796     18799
     18792     18793     18792     18794     18792     18795     18820     18818
     18818     18819     18818     18870     18870     18872     18872     18873
     18872     18874     18872     18875     18875     18876     18875     18877
     18875     18878     18878     18879     18878     18880     18878     18881
     18881     18882     18881     18883     18881     18884     18884     18885
     18884     18886     18884     18887     18887     18888     18887     18889
     18887     18890     18890     18891     18890     18892     18890     18893
     18893     18894     18895     18896     18895     18897     18897     18898
     18897     18899     18897     18900     18900     18901     18900     18902
     18900     18903     18903     18904     18903     18905     18903     18906
     18906     18907     18906     18908     18906     18909     18909     18910
     18909     18911     18909     18912     18912     18913     18912     18914
     18912     18915     18915     18916     18915     18917     18915     18918
     18918     18919     18918     18920     18918     18921     18826     18828
     18893     18895     18870     18871     18922     18923     18922     18924
     18922     18925     18922     18926     18926     18927     18926     18928
     18926     18929     18929     18930     18929     18931     18929     18935
     18937     18936     18935     18932     18932     18936     18932     18933
     18932     18934     18937     18938     18937     18939     18937     18940
     18940     18941     18940     18948     18940     18942     18948     18949
     18948     18950     18948     18951     18942     18943     18943     18945
     18943     18944     18945     18946     18945     18947     18945     18957
     18957     18958     18957     18959     18957     18960     18960     18961
     18960     18962     18960     18963     18963     18964     18963     18965
     18965     18966     18965     18967     18967     18968     18967     18969
     18967     18970     18970     18971     18970     18972     18972     18973
     18972     18974     18974     18975     18974     18976     18974     18977
     18977     18978     18977     18979     18979     18980     18979     18981
     18981     18982     18981     18983     18981     18984     18984     18985
     18984     18986     18986     18987     18986     18988     18988     18989
     18988     18990     18988     18991     18991     18992     18991     18993
     18991     18994     18994     18995     18994     18996     18994     18997
     18997     18998     18997     18999     18997     19000     19000     19001
     19000     19002     19000     19003     18951     18952     18952     18954
     18952     18953     18954     18955     18954     18956     18954     19004
     19004     19005     19004     19006     19004     19007     19007     19008
     19007     19009     19007     19010     19010     19011     19010     19012
     19010     19013     19013     19014     19013     19015     19013     19016
     19016     19017     19016     19018     19016     19019     19019     19020
     19019     19021     19019     19022     19022     19023     19022     19024
     19022     19025     19025     19026     19025     19027     19025     19028
     19028     19029     19028     19030     19028     19031     19031     19032
     19031     19033     19031     19034     19034     19035     19034     19036
     19034     19037     19037     19038     19037     19039     19037     19040
     19040     19041     19040     19042     19040     19043     19043     19044
     19043     19045     19043     19046     19046     19047     19046     19048
     19046     19049     19049     19050     19049     19051     19049     19052
     19053     19054     19053     19055     19053     19056     19053     19057
     19057     19058     19057     19059     19057     19060     19060     19061
     19060     19062     19060     19066     19068     19067     19066     19063
     19063     19067     19063     19064     19063     19065     19068     19069
     19068     19070     19068     19071     19071     19072     19071     19079
     19071     19073     19079     19080     19079     19081     19079     19082
     19073     19074     19074     19076     19074     19075     19076     19077
     19076     19078     19076     19088     19088     19089     19088     19090
     19088     19091     19091     19092     19091     19093     19091     19094
     19094     19095     19094     19096     19096     19097     19096     19098
     19098     19099     19098     19100     19098     19101     19101     19102
     19101     19103     19103     19104     19103     19105     19105     19106
     19105     19107     19105     19108     19108     19109     19108     19110
     19110     19111     19110     19112     19112     19113     19112     19114
     19112     19115     19115     19116     19115     19117     19117     19118
     19117     19119     19119     19120     19119     19121     19119     19122
     19122     19123     19122     19124     19122     19125     19125     19126
     19125     19127     19125     19128     19128     19129     19128     19130
     19128     19131     19131     19132     19131     19133     19131     19134
     19082     19083     19083     19085     19083     19084     19085     19086
     19085     19087     19085     19135     19135     19136     19135     19137
     19135     19138     19138     19139     19138     19140     19138     19141
     19141     19142     19141     19143     19141     19144     19144     19145
     19144     19146     19144     19147     19147     19148     19147     19149
     19147     19150     19150     19151     19150     19152     19150     19153
     19153     19154     19153     19155     19153     19156     19156     19157
     19156     19158     19156     19159     19159     19160     19159     19161
     19159     19162     19162     19163     19162     19164     19162     19165
     19165     19166     19165     19167     19165     19168     19168     19169
     19168     19170     19168     19171     19171     19172     19171     19173
     19171     19174     19174     19175     19174     19176     19174     19177
     19177     19178     19177     19179     19177     19180     19180     19181
     19180     19182     19180     19183     19184     19188     19184     19192
     19184     19196     19188     19189     19188     19190     19188     19191
     19192     19193     19192     19194     19192     19195     19196     19197
     19196     19198     19196     19199     19184     19185     19185     19186
     19185     19187     19185     19200     19200     19201     19200     19202
     19200     19206     19207     19208     19206     19203     19203     19207
     19203     19204     19203     19205     19208     19209     19208     19210
     19208     19211     19211     19212     19211     19219     19211     19213
     19219     19220     19219     19221     19219     19222     19213     19214
     19214     19216     19214     19215     19216     19217     19216     19218
     19216     19228     19228     19229     19228     19230     19228     19231
     19231     19232     19231     19233     19231     19234     19234     19235
     19234     19236     19236     19237     19236     19238     19238     19239
     19238     19240     19238     19241     19241     19242     19241     19243
     19243     19244     19243     19245     19245     19246     19245     19247
     19245     19248     19248     19249     19248     19250     19250     19251
     19250     19252     19252     19253     19252     19254     19252     19255
     19255     19256     19255     19257     19257     19258     19257     19259
     19259     19260     19259     19261     19259     19262     19262     19263
     19262     19264     19262     19265     19265     19266     19265     19267
     19265     19268     19268     19269     19268     19270     19268     19271
     19271     19272     19271     19273     19271     19274     19222     19223
     19223     19225     19223     19224     19225     19226     19225     19227
     19225     19275     19275     19276     19275     19277     19275     19278
     19278     19279     19278     19280     19278     19281     19281     19282
     19281     19283     19281     19284     19284     19285     19284     19286
     19284     19287     19287     19288     19287     19289     19287     19290
     19290     19291     19290     19292     19290     19293     19293     19294
     19293     19295     19293     19296     19296     19297     19296     19298
     19296     19299     19299     19300     19299     19301     19299     19302
     19302     19303     19302     19304     19302     19305     19305     19306
     19305     19307     19305     19308     19308     19309     19308     19310
     19308     19311     19311     19312     19311     19313     19311     19314
     19314     19315     19314     19316     19314     19317     19317     19318
     19317     19319     19317     19320     19320     19321     19320     19322
     19320     19323     19324     19328     19324     19332     19324     19336
     19328     19329     19328     19330     19328     19331     19332     19333
     19332     19334     19332     19335     19336     19337     19336     19338
     19336     19339     19324     19325     19325     19326     19325     19327
     19325     19340     19340     19341     19340     19342     19340     19346
     19347     19348     19346     19343     19343     19347     19343     19344
     19343     19345     19348     19349     19348     19350     19348     19351
     19351     19352     19351     19359     19351     19353     19359     19360
     19359     19361     19359     19362     19353     19354     19354     19356
     19354     19355     19356     19357     19356     19358     19356     19368
     19368     19369     19368     19370     19368     19371     19371     19372
     19371     19373     19371     19374     19374     19375     19374     19376
     19376     19377     19376     19378     19378     19379     19378     19380
     19378     19381     19381     19382     19381     19383     19383     19384
     19383     19385     19385     19386     19385     19387     19385     19388
     19388     19389     19388     19390     19390     19391     19390     19392
     19392     19393     19392     19394     19392     19395     19395     19396
     19395     19397     19397     19398     19397     19399     19399     19400
     19399     19401     19399     19402     19402     19403     19402     19404
     19402     19405     19405     19406     19405     19407     19405     19408
     19408     19409     19408     19410     19408     19411     19411     19412
     19411     19413     19411     19414     19362     19363     19363     19365
     19363     19364     19365     19366     19365     19367     19365     19415
     19415     19416     19415     19417     19415     19418     19418     19419
     19418     19420     19418     19421     19421     19422     19421     19423
     19421     19424     19424     19425     19424     19426     19424     19427
     19427     19428     19427     19429     19427     19430     19430     19431
     19430     19432     19430     19433     19433     19434     19433     19435
     19433     19436     19436     19437     19436     19438     19436     19439
     19439     19440     19439     19441     19439     19442     19442     19443
     19442     19444     19442     19445     19445     19446     19445     19447
     19445     19448     19448     19449     19448     19450     19448     19451
     19451     19452     19451     19453     19451     19454     19454     19455
     19454     19456     19454     19457     19457     19458     19457     19459
     19457     19460     19460     19461     19460     19462     19460     19463
     19464     19465     19464     19466     19464     19467     19464     19468
     19472     19470     19470     19468     19470     19471     19468     19469
     19468     19473     19481     19480     19473     19474     19473     19475
     19473     19479     19479     19476     19476     19480     19476     19477
     19476     19478     19481     19482     19481     19483     19481     19484
     19484     19485     19484     19492     19484     19486     19492     19493
     19492     19494     19492     19495     19486     19487     19487     19489
     19487     19488     19489     19490     19489     19491     19489     19501
     19501     19502     19501     19503     19501     19504     19504     19505
     19504     19506     19504     19507     19507     19508     19507     19509
     19509     19510     19509     19511     19511     19512     19511     19513
     19511     19514     19514     19515     19514     19516     19516     19517
     19516     19518     19518     19519     19518     19520     19518     19521
     19521     19522     19521     19523     19523     19524     19523     19525
     19525     19526     19525     19527     19525     19528     19528     19529
     19528     19530     19530     19531     19530     19532     19532     19533
     19532     19534     19532     19535     19535     19536     19535     19537
     19535     19538     19538     19539     19538     19540     19538     19541
     19541     19542     19541     19543     19541     19544     19544     19545
     19544     19546     19544     19547     19495     19496     19496     19498
     19496     19497     19498     19499     19498     19500     19498     19548
     19548     19549     19548     19550     19548     19551     19551     19552
     19551     19553     19551     19554     19554     19555     19554     19556
     19554     19557     19557     19558     19557     19559     19557     19560
     19560     19561     19560     19562     19560     19563     19563     19564
     19563     19565     19563     19566     19566     19567     19566     19568
     19566     19569     19569     19570     19569     19571     19569     19572
     19572     19573     19572     19574     19572     19575     19575     19576
     19575     19577     19575     19578     19578     19579     19578     19580
     19578     19581     19581     19582     19581     19583     19581     19584
     19584     19585     19584     19586     19584     19587     19587     19588
     19587     19589     19587     19590     19590     19591     19590     19592
     19590     19593     19593     19594     19593     19595     19593     19596
     19672     19673     19672     19674     19672     19675     19672     19669
     19669     19670     19669     19671     19669     19666     19666     19667
     19666     19668     19666     19663     19663     19664     19663     19665
     19663     19660     19660     19661     19660     19662     19660     19657
     19657     19658     19657     19659     19657     19654     19654     19655
     19654     19656     19654     19651     19651     19652     19651     19653
     19651     19648     19648     19649     19648     19650     19648     19645
     19645     19646     19645     19647     19645     19642     19642     19643
     19642     19644     19642     19639     19639     19640     19639     19641
     19639     19636     19636     19637     19636     19638     19636     19634
     19634     19635     19632     19633     19632     19628     19628     19629
     19628     19630     19630     19631     19628     19626     19626     19627
     19626     19621     19621     19622     19621     19623     19621     19619
     19619     19616     19620     19616     19617     19616     19618     19616
     19620     19613     19613     19614     19613     19615     19613     19610
     19610     19611     19610     19612     19610     19597     19597     19606
     19597     19602     19597     19598     19606     19607     19606     19608
     19606     19609     19602     19603     19602     19604     19602     19605
     19598     19599     19598     19600     19598     19601     19626     19624
     19624     19625     19624     19676     19676     19678     19678     19679
     19678     19680     19678     19681     19681     19682     19681     19683
     19681     19684     19684     19685     19684     19686     19684     19687
     19687     19688     19687     19689     19687     19690     19690     19691
     19690     19692     19690     19693     19693     19694     19693     19695
     19693     19696     19696     19697     19696     19698     19696     19699
     19699     19700     19701     19702     19701     19703     19703     19704
     19703     19705     19703     19706     19706     19707     19706     19708
     19706     19709     19709     19710     19709     19711     19709     19712
     19712     19713     19712     19714     19712     19715     19715     19716
     19715     19717     19715     19718     19718     19719     19718     19720
     19718     19721     19721     19722     19721     19723     19721     19724
     19724     19725     19724     19726     19724     19727     19632     19634
     19699     19701     19676     19677     19728     19729     19728     19733
     19728     19737     19729     19730     19729     19731     19729     19732
     19733     19734     19733     19735     19733     19736     19737     19738
     19737     19739     19737     19740     19728     19741     19741     19742
     19741     19743     19741     19744     19744     19745     19744     19746
     19744     19750     19751     19752     19750     19747     19747     19751
     19747     19748     19747     19749     19752     19753     19752     19754
     19752     19755     19755     19756     19755     19763     19755     19757
     19763     19764     19763     19765     19763     19766     19757     19758
     19758     19760     19758     19759     19760     19761     19760     19762
     19760     19772     19772     19773     19772     19774     19772     19775
     19775     19776     19775     19777     19775     19778     19778     19779
     19778     19780     19778     19781     19781     19782     19781     19783
     19781     19784     19784     19785     19784     19786     19784     19787
     19787     19788     19787     19789     19787     19790     19790     19791
     19790     19792     19792     19793     19792     19794     19794     19795
     19794     19796     19794     19797     19797     19798     19797     19799
     19799     19800     19799     19801     19801     19802     19801     19803
     19801     19804     19804     19805     19804     19806     19804     19807
     19807     19808     19807     19809     19807     19810     19810     19811
     19810     19812     19810     19813     19813     19814     19813     19815
     19813     19816     19766     19767     19767     19769     19767     19768
     19769     19770     19769     19771     19769     19817     19817     19818
     19817     19819     19817     19820     19820     19821     19820     19822
     19820     19823     19823     19824     19823     19825     19823     19826
     19826     19827     19826     19828     19826     19829     19829     19830
     19829     19831     19829     19832     19832     19833     19832     19834
     19832     19835     19835     19836     19835     19837     19835     19838
     19838     19839     19838     19840     19838     19841     19841     19842
     19841     19843     19841     19844     19844     19845     19844     19846
     19844     19847     19847     19848     19847     19849     19847     19850
     19850     19851     19850     19852     19850     19853     19853     19854
     19853     19855     19853     19856     19856     19857     19856     19858
     19856     19859     19859     19860     19859     19861     19859     19862
     19862     19863     19862     19864     19862     19865     19866     19867
     19866     19868     19866     19869     19866     19870     19870     19871
     19870     19872     19870     19873     19873     19874     19873     19875
     19873     19879     19881     19880     19879     19876     19876     19880
     19876     19877     19876     19878     19881     19882     19881     19883
     19881     19884     19884     19885     19884     19892     19884     19886
     19892     19893     19892     19894     19892     19895     19886     19887
     19887     19889     19887     19888     19889     19890     19889     19891
     19889     19901     19901     19902     19901     19903     19901     19904
     19904     19905     19904     19906     19904     19907     19907     19908
     19907     19909     19907     19910     19910     19911     19910     19912
     19910     19913     19913     19914     19913     19915     19913     19916
     19916     19917     19916     19918     19916     19919     19919     19920
     19919     19921     19921     19922     19921     19923     19923     19924
     19923     19925     19923     19926     19926     19927     19926     19928
     19926     19929     19929     19930     19929     19931     19929     19932
     19932     19933     19932     19934     19932     19935     19935     19936
     19935     19937     19935     19938     19938     19939     19938     19940
     19938     19941     19941     19942     19941     19943     19941     19944
     19944     19945     19944     19946     19944     19947     19895     19896
     19896     19898     19896     19897     19898     19899     19898     19900
     19898     19948     19948     19949     19948     19950     19948     19951
     19951     19952     19951     19953     19951     19954     19954     19955
     19954     19956     19954     19957     19957     19958     19957     19959
     19957     19960     19960     19961     19960     19962     19960     19963
     19963     19964     19963     19965     19963     19966     19966     19967
     19966     19968     19966     19969     19969     19970     19969     19971
     19969     19972     19972     19973     19972     19974     19972     19975
     19975     19976     19975     19977     19975     19978     19978     19979
     19978     19980     19978     19981     19981     19982     19981     19983
     19981     19984     19984     19985     19984     19986     19984     19987
     19987     19988     19987     19989     19987     19990     19990     19991
     19990     19992     19990     19993     19993     19994     19993     19995
     19993     19996     19997     19998     19997     19999     19997     20000
     19997     20001     20001     20002     20001     20003     20001     20004
     20004     20005     20004     20006     20004     20010     20012     20011
     20010     20007     20007     20011     20007     20008     20007     20009
     20012     20013     20012     20014     20012     20015     20015     20016
     20015     20023     20015     20017     20023     20024     20023     20025
     20023     20026     20017     20018     20018     20020     20018     20019
     20020     20021     20020     20022     20020     20032     20032     20033
     20032     20034     20032     20035     20035     20036     20035     20037
     20035     20038     20038     20039     20038     20040     20040     20041
     20040     20042     20042     20043     20042     20044     20042     20045
     20045     20046     20045     20047     20047     20048     20047     20049
     20049     20050     20049     20051     20049     20052     20052     20053
     20052     20054     20054     20055     20054     20056     20056     20057
     20056     20058     20056     20059     20059     20060     20059     20061
     20061     20062     20061     20063     20063     20064     20063     20065
     20063     20066     20066     20067     20066     20068     20066     20069
     20069     20070     20069     20071     20069     20072     20072     20073
     20072     20074     20072     20075     20075     20076     20075     20077
     20075     20078     20026     20027     20027     20029     20027     20028
     20029     20030     20029     20031     20029     20079     20079     20080
     20079     20081     20079     20082     20082     20083     20082     20084
     20082     20085     20085     20086     20085     20087     20085     20088
     20088     20089     20088     20090     20088     20091     20091     20092
     20091     20093     20091     20094     20094     20095     20094     20096
     20094     20097     20097     20098     20097     20099     20097     20100
     20100     20101     20100     20102     20100     20103     20103     20104
     20103     20105     20103     20106     20106     20107     20106     20108
     20106     20109     20109     20110     20109     20111     20109     20112
     20112     20113     20112     20114     20112     20115     20115     20116
     20115     20117     20115     20118     20118     20119     20118     20120
     20118     20121     20121     20122     20121     20123     20121     20124
     20124     20125     20124     20126     20124     20127     20128     20129
     20128     20130     20128     20131     20128     20132     20136     20134
     20134     20132     20134     20135     20132     20133     20132     20137
     20145     20144     20137     20138     20137     20139     20137     20143
     20143     20140     20140     20144     20140     20141     20140     20142
     20145     20146     20145     20147     20145     20148     20148     20149
     20148     20156     20148     20150     20156     20157     20156     20158
     20156     20159     20150     20151     20151     20153     20151     20152
     20153     20154     20153     20155     20153     20165     20165     20166
     20165     20167     20165     20168     20168     20169     20168     20170
     20168     20171     20171     20172     20171     20173     20173     20174
     20173     20175     20175     20176     20175     20177     20175     20178
     20178     20179     20178     20180     20180     20181     20180     20182
     20182     20183     20182     20184     20182     20185     20185     20186
     20185     20187     20187     20188     20187     20189     20189     20190
     20189     20191     20189     20192     20192     20193     20192     20194
     20194     20195     20194     20196     20196     20197     20196     20198
     20196     20199     20199     20200     20199     20201     20199     20202
     20202     20203     20202     20204     20202     20205     20205     20206
     20205     20207     20205     20208     20208     20209     20208     20210
     20208     20211     20159     20160     20160     20162     20160     20161
     20162     20163     20162     20164     20162     20212     20212     20213
     20212     20214     20212     20215     20215     20216     20215     20217
     20215     20218     20218     20219     20218     20220     20218     20221
     20221     20222     20221     20223     20221     20224     20224     20225
     20224     20226     20224     20227     20227     20228     20227     20229
     20227     20230     20230     20231     20230     20232     20230     20233
     20233     20234     20233     20235     20233     20236     20236     20237
     20236     20238     20236     20239     20239     20240     20239     20241
     20239     20242     20242     20243     20242     20244     20242     20245
     20245     20246     20245     20247     20245     20248     20248     20249
     20248     20250     20248     20251     20251     20252     20251     20253
     20251     20254     20254     20255     20254     20256     20254     20257
     20257     20258     20257     20259     20257     20260     20336     20337
     20336     20338     20336     20339     20336     20333     20333     20334
     20333     20335     20333     20330     20330     20331     20330     20332
     20330     20327     20327     20328     20327     20329     20327     20324
     20324     20325     20324     20326     20324     20321     20321     20322
     20321     20323     20321     20318     20318     20319     20318     20320
     20318     20315     20315     20316     20315     20317     20315     20312
     20312     20313     20312     20314     20312     20309     20309     20310
     20309     20311     20309     20306     20306     20307     20306     20308
     20306     20303     20303     20304     20303     20305     20303     20300
     20300     20301     20300     20302     20300     20298     20298     20299
     20296     20297     20296     20292     20292     20293     20292     20294
     20294     20295     20292     20290     20290     20291     20290     20285
     20285     20286     20285     20287     20285     20283     20283     20280
     20284     20280     20281     20280     20282     20280     20284     20277
     20277     20278     20277     20279     20277     20274     20274     20275
     20274     20276     20274     20261     20261     20270     20261     20266
     20261     20262     20270     20271     20270     20272     20270     20273
     20266     20267     20266     20268     20266     20269     20262     20263
     20262     20264     20262     20265     20290     20288     20288     20289
     20288     20340     20340     20342     20342     20343     20342     20344
     20342     20345     20345     20346     20345     20347     20345     20348
     20348     20349     20348     20350     20348     20351     20351     20352
     20351     20353     20351     20354     20354     20355     20354     20356
     20354     20357     20357     20358     20357     20359     20357     20360
     20360     20361     20360     20362     20360     20363     20363     20364
     20365     20366     20365     20367     20367     20368     20367     20369
     20367     20370     20370     20371     20370     20372     20370     20373
     20373     20374     20373     20375     20373     20376     20376     20377
     20376     20378     20376     20379     20379     20380     20379     20381
     20379     20382     20382     20383     20382     20384     20382     20385
     20385     20386     20385     20387     20385     20388     20388     20389
     20388     20390     20388     20391     20296     20298     20363     20365
     20340     20341     20392     20393     20392     20397     20392     20401
     20393     20394     20393     20395     20393     20396     20397     20398
     20397     20399     20397     20400     20401     20402     20401     20403
     20401     20404     20392     20405     20405     20406     20405     20407
     20405     20408     20408     20409     20408     20410     20408     20414
     20415     20416     20414     20411     20411     20415     20411     20412
     20411     20413     20416     20417     20416     20418     20416     20419
     20419     20420     20419     20427     20419     20421     20427     20428
     20427     20429     20427     20430     20421     20422     20422     20424
     20422     20423     20424     20425     20424     20426     20424     20436
     20436     20437     20436     20438     20436     20439     20439     20440
     20439     20441     20439     20442     20442     20443     20442     20444
     20442     20445     20445     20446     20445     20447     20445     20448
     20448     20449     20448     20450     20448     20451     20451     20452
     20451     20453     20451     20454     20454     20455     20454     20456
     20456     20457     20456     20458     20458     20459     20458     20460
     20458     20461     20461     20462     20461     20463     20463     20464
     20463     20465     20465     20466     20465     20467     20465     20468
     20468     20469     20468     20470     20468     20471     20471     20472
     20471     20473     20471     20474     20474     20475     20474     20476
     20474     20477     20477     20478     20477     20479     20477     20480
     20430     20431     20431     20433     20431     20432     20433     20434
     20433     20435     20433     20481     20481     20482     20481     20483
     20481     20484     20484     20485     20484     20486     20484     20487
     20487     20488     20487     20489     20487     20490     20490     20491
     20490     20492     20490     20493     20493     20494     20493     20495
     20493     20496     20496     20497     20496     20498     20496     20499
     20499     20500     20499     20501     20499     20502     20502     20503
     20502     20504     20502     20505     20505     20506     20505     20507
     20505     20508     20508     20509     20508     20510     20508     20511
     20511     20512     20511     20513     20511     20514     20514     20515
     20514     20516     20514     20517     20517     20518     20517     20519
     20517     20520     20520     20521     20520     20522     20520     20523
     20523     20524     20523     20525     20523     20526     20526     20527
     20526     20528     20526     20529     20530     20532     20530     20531
     20532     20533     20530     20576     20576     20577     20576     20578
     20576     20573     20573     20574     20573     20575     20530     20534
     20534     20535     20534     20536     20534     20537     20537     20568
     20568     20573     20568     20569     20569     20570     20569     20571
     20569     20572     20537     20538     20538     20539     20538     20540
     20540     20541     20540     20542     20540     20543     20543     20544
     20543     20566     20566     20567     20566     20568     20543     20545
     20545     20546     20545     20555     20555     20560     20560     20561
     20560     20562     20560     20563     20563     20564     20563     20565
     20563     20566     20555     20556     20556     20557     20556     20558
     20556     20559     20545     20547     20547     20548     20547     20549
     20547     20550     20550     20551     20550     20552     20550     20553
     20553     20554     20553     20555     20553     20579     20579     20580
     20579     20581     20581     20582     20581     20583     20581     20584
     20579     20585     20585     20586     20585     20587     20585     20588
     20588     20589     20588     20590     20588     20591     20591     20592
     20591     20593     20591     20594     20594     20595     20594     20596
     20596     20597     20596     20598     20596     20599     20594     20600
     20600     20601     20600     20602     20600     20603     20604     20606
     20604     20605     20606     20607     20604     20650     20650     20651
     20650     20652     20650     20647     20647     20648     20647     20649
     20604     20608     20608     20609     20608     20610     20608     20611
     20611     20642     20642     20647     20642     20643     20643     20644
     20643     20645     20643     20646     20611     20612     20612     20613
     20612     20614     20614     20615     20614     20616     20614     20617
     20617     20618     20617     20640     20640     20641     20640     20642
     20617     20619     20619     20620     20619     20629     20629     20634
     20634     20635     20634     20636     20634     20637     20637     20638
     20637     20639     20637     20640     20629     20630     20630     20631
     20630     20632     20630     20633     20619     20621     20621     20622
     20621     20623     20621     20624     20624     20625     20624     20626
     20624     20627     20627     20628     20627     20629     20627     20653
     20653     20654     20653     20655     20655     20656     20655     20657
     20655     20658     20653     20659     20659     20660     20659     20661
     20659     20662     20662     20663     20662     20664     20662     20665
     20665     20666     20665     20667     20665     20668     20668     20669
     20668     20670     20670     20671     20670     20672     20670     20673
     20668     20674     20674     20675     20674     20676     20674     20677
     20678     20682     20678     20686     20678     20690     20682     20683
     20682     20684     20682     20685     20686     20687     20686     20688
     20686     20689     20690     20691     20690     20692     20690     20693
     20678     20679     20679     20680     20679     20681     20679     20694
     20694     20695     20694     20696     20694     20700     20701     20702
     20700     20697     20697     20701     20697     20698     20697     20699
     20702     20703     20702     20704     20702     20705     20705     20706
     20705     20713     20705     20707     20713     20714     20713     20715
     20713     20716     20707     20708     20708     20710     20708     20709
     20710     20711     20710     20712     20710     20722     20722     20723
     20722     20724     20722     20725     20725     20726     20725     20727
     20725     20728     20728     20729     20728     20730     20730     20731
     20730     20732     20732     20733     20732     20734     20732     20735
     20735     20736     20735     20737     20737     20738     20737     20739
     20739     20740     20739     20741     20739     20742     20742     20743
     20742     20744     20744     20745     20744     20746     20746     20747
     20746     20748     20746     20749     20749     20750     20749     20751
     20751     20752     20751     20753     20753     20754     20753     20755
     20753     20756     20756     20757     20756     20758     20756     20759
     20759     20760     20759     20761     20759     20762     20762     20763
     20762     20764     20762     20765     20765     20766     20765     20767
     20765     20768     20716     20717     20717     20719     20717     20718
     20719     20720     20719     20721     20719     20769     20769     20770
     20769     20771     20769     20772     20772     20773     20772     20774
     20772     20775     20775     20776     20775     20777     20775     20778
     20778     20779     20778     20780     20778     20781     20781     20782
     20781     20783     20781     20784     20784     20785     20784     20786
     20784     20787     20787     20788     20787     20789     20787     20790
     20790     20791     20790     20792     20790     20793     20793     20794
     20793     20795     20793     20796     20796     20797     20796     20798
     20796     20799     20799     20800     20799     20801     20799     20802
     20802     20803     20802     20804     20802     20805     20805     20806
     20805     20807     20805     20808     20808     20809     20808     20810
     20808     20811     20811     20812     20811     20813     20811     20814
     20814     20815     20814     20816     20814     20817     20893     20894
     20893     20895     20893     20896     20893     20890     20890     20891
     20890     20892     20890     20887     20887     20888     20887     20889
     20887     20884     20884     20885     20884     20886     20884     20881
     20881     20882     20881     20883     20881     20878     20878     20879
     20878     20880     20878     20875     20875     20876     20875     20877
     20875     20872     20872     20873     20872     20874     20872     20869
     20869     20870     20869     20871     20869     20866     20866     20867
     20866     20868     20866     20863     20863     20864     20863     20865
     20863     20860     20860     20861     20860     20862     20860     20857
     20857     20858     20857     20859     20857     20855     20855     20856
     20853     20854     20853     20849     20849     20850     20849     20851
     20851     20852     20849     20847     20847     20848     20847     20842
     20842     20843     20842     20844     20842     20840     20840     20837
     20841     20837     20838     20837     20839     20837     20841     20834
     20834     20835     20834     20836     20834     20831     20831     20832
     20831     20833     20831     20818     20818     20827     20818     20823
     20818     20819     20827     20828     20827     20829     20827     20830
     20823     20824     20823     20825     20823     20826     20819     20820
     20819     20821     20819     20822     20847     20845     20845     20846
     20845     20897     20897     20899     20899     20900     20899     20901
     20899     20902     20902     20903     20902     20904     20902     20905
     20905     20906     20905     20907     20905     20908     20908     20909
     20908     20910     20908     20911     20911     20912     20911     20913
     20911     20914     20914     20915     20914     20916     20914     20917
     20917     20918     20917     20919     20917     20920     20920     20921
     20922     20923     20922     20924     20924     20925     20924     20926
     20924     20927     20927     20928     20927     20929     20927     20930
     20930     20931     20930     20932     20930     20933     20933     20934
     20933     20935     20933     20936     20936     20937     20936     20938
     20936     20939     20939     20940     20939     20941     20939     20942
     20942     20943     20942     20944     20942     20945     20945     20946
     20945     20947     20945     20948     20853     20855     20920     20922
     20897     20898     20949     20950     20949     20951     20949     20952
     20949     20953     20957     20955     20955     20953     20955     20956
     20953     20954     20953     20958     20966     20965     20958     20959
     20958     20960     20958     20964     20964     20961     20961     20965
     20961     20962     20961     20963     20966     20967     20966     20968
     20966     20969     20969     20970     20969     20977     20969     20971
     20977     20978     20977     20979     20977     20980     20971     20972
     20972     20974     20972     20973     20974     20975     20974     20976
     20974     20986     20986     20987     20986     20988     20986     20989
     20989     20990     20989     20991     20989     20992     20992     20993
     20992     20994     20994     20995     20994     20996     20996     20997
     20996     20998     20996     20999     20999     21000     20999     21001
     21001     21002     21001     21003     21003     21004     21003     21005
     21003     21006     21006     21007     21006     21008     21008     21009
     21008     21010     21010     21011     21010     21012     21010     21013
     21013     21014     21013     21015     21015     21016     21015     21017
     21017     21018     21017     21019     21017     21020     21020     21021
     21020     21022     21020     21023     21023     21024     21023     21025
     21023     21026     21026     21027     21026     21028     21026     21029
     21029     21030     21029     21031     21029     21032     20980     20981
     20981     20983     20981     20982     20983     20984     20983     20985
     20983     21033     21033     21034     21033     21035     21033     21036
     21036     21037     21036     21038     21036     21039     21039     21040
     21039     21041     21039     21042     21042     21043     21042     21044
     21042     21045     21045     21046     21045     21047     21045     21048
     21048     21049     21048     21050     21048     21051     21051     21052
     21051     21053     21051     21054     21054     21055     21054     21056
     21054     21057     21057     21058     21057     21059     21057     21060
     21060     21061     21060     21062     21060     21063     21063     21064
     21063     21065     21063     21066     21066     21067     21066     21068
     21066     21069     21069     21070     21069     21071     21069     21072
     21072     21073     21072     21074     21072     21075     21075     21076
     21075     21077     21075     21078     21078     21079     21078     21080
     21078     21081     21082     21084     21082     21083     21084     21085
     21082     21128     21128     21129     21128     21130     21128     21125
     21125     21126     21125     21127     21082     21086     21086     21087
     21086     21088     21086     21089     21089     21120     21120     21125
     21120     21121     21121     21122     21121     21123     21121     21124
     21089     21090     21090     21091     21090     21092     21092     21093
     21092     21094     21092     21095     21095     21096     21095     21118
     21118     21119     21118     21120     21095     21097     21097     21098
     21097     21107     21107     21112     21112     21113     21112     21114
     21112     21115     21115     21116     21115     21117     21115     21118
     21107     21108     21108     21109     21108     21110     21108     21111
     21097     21099     21099     21100     21099     21101     21099     21102
     21102     21103     21102     21104     21102     21105     21105     21106
     21105     21107     21105     21131     21131     21132     21131     21133
     21133     21134     21133     21135     21133     21136     21131     21137
     21137     21138     21137     21139     21137     21140     21140     21141
     21140     21142     21140     21143     21143     21144     21143     21145
     21143     21146     21146     21147     21146     21148     21148     21149
     21148     21150     21148     21151     21146     21152     21152     21153
     21152     21154     21152     21155     21156     21158     21156     21157
     21158     21159     21156     21202     21202     21203     21202     21204
     21202     21199     21199     21200     21199     21201     21156     21160
     21160     21161     21160     21162     21160     21163     21163     21194
     21194     21199     21194     21195     21195     21196     21195     21197
     21195     21198     21163     21164     21164     21165     21164     21166
     21166     21167     21166     21168     21166     21169     21169     21170
     21169     21192     21192     21193     21192     21194     21169     21171
     21171     21172     21171     21181     21181     21186     21186     21187
     21186     21188     21186     21189     21189     21190     21189     21191
     21189     21192     21181     21182     21182     21183     21182     21184
     21182     21185     21171     21173     21173     21174     21173     21175
     21173     21176     21176     21177     21176     21178     21176     21179
     21179     21180     21179     21181     21179     21205     21205     21206
     21205     21207     21207     21208     21207     21209     21207     21210
     21205     21211     21211     21212     21211     21213     21211     21214
     21214     21215     21214     21216     21214     21217     21217     21218
     21217     21219     21217     21220     21220     21221     21220     21222
     21222     21223     21222     21224     21222     21225     21220     21226
     21226     21227     21226     21228     21226     21229     21305     21306
     21305     21307     21305     21308     21305     21302     21302     21303
     21302     21304     21302     21299     21299     21300     21299     21301
     21299     21296     21296     21297     21296     21298     21296     21293
     21293     21294     21293     21295     21293     21290     21290     21291
     21290     21292     21290     21287     21287     21288     21287     21289
     21287     21284     21284     21285     21284     21286     21284     21281
     21281     21282     21281     21283     21281     21278     21278     21279
     21278     21280     21278     21275     21275     21276     21275     21277
     21275     21272     21272     21273     21272     21274     21272     21269
     21269     21270     21269     21271     21269     21267     21267     21268
     21265     21266     21265     21261     21261     21262     21261     21263
     21263     21264     21261     21259     21259     21260     21259     21254
     21254     21255     21254     21256     21254     21252     21252     21249
     21253     21249     21250     21249     21251     21249     21253     21246
     21246     21247     21246     21248     21246     21243     21243     21244
     21243     21245     21243     21230     21230     21239     21230     21235
     21230     21231     21239     21240     21239     21241     21239     21242
     21235     21236     21235     21237     21235     21238     21231     21232
     21231     21233     21231     21234     21259     21257     21257     21258
     21257     21309     21309     21311     21311     21312     21311     21313
     21311     21314     21314     21315     21314     21316     21314     21317
     21317     21318     21317     21319     21317     21320     21320     21321
     21320     21322     21320     21323     21323     21324     21323     21325
     21323     21326     21326     21327     21326     21328     21326     21329
     21329     21330     21329     21331     21329     21332     21332     21333
     21334     21335     21334     21336     21336     21337     21336     21338
     21336     21339     21339     21340     21339     21341     21339     21342
     21342     21343     21342     21344     21342     21345     21345     21346
     21345     21347     21345     21348     21348     21349     21348     21350
     21348     21351     21351     21352     21351     21353     21351     21354
     21354     21355     21354     21356     21354     21357     21357     21358
     21357     21359     21357     21360     21265     21267     21332     21334
     21309     21310     21361     21363     21361     21362     21363     21364
     21361     21407     21407     21408     21407     21409     21407     21404
     21404     21405     21404     21406     21361     21365     21365     21366
     21365     21367     21365     21368     21368     21399     21399     21404
     21399     21400     21400     21401     21400     21402     21400     21403
     21368     21369     21369     21370     21369     21371     21371     21372
     21371     21373     21371     21374     21374     21375     21374     21397
     21397     21398     21397     21399     21374     21376     21376     21377
     21376     21386     21386     21391     21391     21392     21391     21393
     21391     21394     21394     21395     21394     21396     21394     21397
     21386     21387     21387     21388     21387     21389     21387     21390
     21376     21378     21378     21379     21378     21380     21378     21381
     21381     21382     21381     21383     21381     21384     21384     21385
     21384     21386     21384     21410     21410     21411     21410     21412
     21412     21413     21412     21414     21412     21415     21410     21416
     21416     21417     21416     21418     21416     21419     21419     21420
     21419     21421     21419     21422     21422     21423     21422     21424
     21422     21425     21425     21426     21425     21427     21427     21428
     21427     21429     21427     21430     21425     21431     21431     21432
     21431     21433     21431     21434     21435     21436     21435     21437
     21435     21438     21435     21439     21439     21440     21439     21441
     21439     21442     21442     21443     21442     21444     21442     21448
     21450     21449     21448     21445     21445     21449     21445     21446
     21445     21447     21450     21451     21450     21452     21450     21453
     21453     21454     21453     21461     21453     21455     21461     21462
     21461     21463     21461     21464     21455     21456     21456     21458
     21456     21457     21458     21459     21458     21460     21458     21470
     21470     21471     21470     21472     21470     21473     21473     21474
     21473     21475     21473     21476     21476     21477     21476     21478
     21478     21479     21478     21480     21480     21481     21480     21482
     21480     21483     21483     21484     21483     21485     21485     21486
     21485     21487     21487     21488     21487     21489     21487     21490
     21490     21491     21490     21492     21492     21493     21492     21494
     21494     21495     21494     21496     21494     21497     21497     21498
     21497     21499     21499     21500     21499     21501     21501     21502
     21501     21503     21501     21504     21504     21505     21504     21506
     21504     21507     21507     21508     21507     21509     21507     21510
     21510     21511     21510     21512     21510     21513     21513     21514
     21513     21515     21513     21516     21464     21465     21465     21467
     21465     21466     21467     21468     21467     21469     21467     21517
     21517     21518     21517     21519     21517     21520     21520     21521
     21520     21522     21520     21523     21523     21524     21523     21525
     21523     21526     21526     21527     21526     21528     21526     21529
     21529     21530     21529     21531     21529     21532     21532     21533
     21532     21534     21532     21535     21535     21536     21535     21537
     21535     21538     21538     21539     21538     21540     21538     21541
     21541     21542     21541     21543     21541     21544     21544     21545
     21544     21546     21544     21547     21547     21548     21547     21549
     21547     21550     21550     21551     21550     21552     21550     21553
     21553     21554     21553     21555     21553     21556     21556     21557
     21556     21558     21556     21559     21559     21560     21559     21561
     21559     21562     21562     21563     21562     21564     21562     21565
     21566     21567     21566     21568     21566     21569     21566     21570
     21570     21571     21570     21572     21570     21573     21573     21574
     21573     21575     21573     21579     21581     21580     21579     21576
     21576     21580     21576     21577     21576     21578     21581     21582
     21581     21583     21581     21584     21584     21585     21584     21592
     21584     21586     21592     21593     21592     21594     21592     21595
     21586     21587     21587     21589     21587     21588     21589     21590
     21589     21591     21589     21601     21601     21602     21601     21603
     21601     21604     21604     21605     21604     21606     21604     21607
     21607     21608     21607     21609     21609     21610     21609     21611
     21611     21612     21611     21613     21611     21614     21614     21615
     21614     21616     21616     21617     21616     21618     21618     21619
     21618     21620     21618     21621     21621     21622     21621     21623
     21623     21624     21623     21625     21625     21626     21625     21627
     21625     21628     21628     21629     21628     21630     21630     21631
     21630     21632     21632     21633     21632     21634     21632     21635
     21635     21636     21635     21637     21635     21638     21638     21639
     21638     21640     21638     21641     21641     21642     21641     21643
     21641     21644     21644     21645     21644     21646     21644     21647
     21595     21596     21596     21598     21596     21597     21598     21599
     21598     21600     21598     21648     21648     21649     21648     21650
     21648     21651     21651     21652     21651     21653     21651     21654
     21654     21655     21654     21656     21654     21657     21657     21658
     21657     21659     21657     21660     21660     21661     21660     21662
     21660     21663     21663     21664     21663     21665     21663     21666
     21666     21667     21666     21668     21666     21669     21669     21670
     21669     21671     21669     21672     21672     21673     21672     21674
     21672     21675     21675     21676     21675     21677     21675     21678
     21678     21679     21678     21680     21678     21681     21681     21682
     21681     21683     21681     21684     21684     21685     21684     21686
     21684     21687     21687     21688     21687     21689     21687     21690
     21690     21691     21690     21692     21690     21693     21693     21694
     21693     21695     21693     21696     21697     21699     21697     21698
     21699     21700     21697     21743     21743     21744     21743     21745
     21743     21740     21740     21741     21740     21742     21697     21701
     21701     21702     21701     21703     21701     21704     21704     21735
     21735     21740     21735     21736     21736     21737     21736     21738
     21736     21739     21704     21705     21705     21706     21705     21707
     21707     21708     21707     21709     21707     21710     21710     21711
     21710     21733     21733     21734     21733     21735     21710     21712
     21712     21713     21712     21722     21722     21727     21727     21728
     21727     21729     21727     21730     21730     21731     21730     21732
     21730     21733     21722     21723     21723     21724     21723     21725
     21723     21726     21712     21714     21714     21715     21714     21716
     21714     21717     21717     21718     21717     21719     21717     21720
     21720     21721     21720     21722     21720     21746     21746     21747
     21746     21748     21748     21749     21748     21750     21748     21751
     21746     21752     21752     21753     21752     21754     21752     21755
     21755     21756     21755     21757     21755     21758     21758     21759
     21758     21760     21758     21761     21761     21762     21761     21763
     21763     21764     21763     21765     21763     21766     21761     21767
     21767     21768     21767     21769     21767     21770     21846     21847
     21846     21848     21846     21849     21846     21843     21843     21844
     21843     21845     21843     21840     21840     21841     21840     21842
     21840     21837     21837     21838     21837     21839     21837     21834
     21834     21835     21834     21836     21834     21831     21831     21832
     21831     21833     21831     21828     21828     21829     21828     21830
     21828     21825     21825     21826     21825     21827     21825     21822
     21822     21823     21822     21824     21822     21819     21819     21820
     21819     21821     21819     21816     21816     21817     21816     21818
     21816     21813     21813     21814     21813     21815     21813     21810
     21810     21811     21810     21812     21810     21808     21808     21809
     21806     21807     21806     21802     21802     21803     21802     21804
     21804     21805     21802     21800     21800     21801     21800     21795
     21795     21796     21795     21797     21795     21793     21793     21790
     21794     21790     21791     21790     21792     21790     21794     21787
     21787     21788     21787     21789     21787     21784     21784     21785
     21784     21786     21784     21771     21771     21780     21771     21776
     21771     21772     21780     21781     21780     21782     21780     21783
     21776     21777     21776     21778     21776     21779     21772     21773
     21772     21774     21772     21775     21800     21798     21798     21799
     21798     21850     21850     21852     21852     21853     21852     21854
     21852     21855     21855     21856     21855     21857     21855     21858
     21858     21859     21858     21860     21858     21861     21861     21862
     21861     21863     21861     21864     21864     21865     21864     21866
     21864     21867     21867     21868     21867     21869     21867     21870
     21870     21871     21870     21872     21870     21873     21873     21874
     21875     21876     21875     21877     21877     21878     21877     21879
     21877     21880     21880     21881     21880     21882     21880     21883
     21883     21884     21883     21885     21883     21886     21886     21887
     21886     21888     21886     21889     21889     21890     21889     21891
     21889     21892     21892     21893     21892     21894     21892     21895
     21895     21896     21895     21897     21895     21898     21898     21899
     21898     21900     21898     21901     21806     21808     21873     21875
     21850     21851     21902     21904     21902     21903     21904     21905
     21902     21948     21948     21949     21948     21950     21948     21945
     21945     21946     21945     21947     21902     21906     21906     21907
     21906     21908     21906     21909     21909     21940     21940     21945
     21940     21941     21941     21942     21941     21943     21941     21944
     21909     21910     21910     21911     21910     21912     21912     21913
     21912     21914     21912     21915     21915     21916     21915     21938
     21938     21939     21938     21940     21915     21917     21917     21918
     21917     21927     21927     21932     21932     21933     21932     21934
     21932     21935     21935     21936     21935     21937     21935     21938
     21927     21928     21928     21929     21928     21930     21928     21931
     21917     21919     21919     21920     21919     21921     21919     21922
     21922     21923     21922     21924     21922     21925     21925     21926
     21925     21927     21925     21951     21951     21952     21951     21953
     21953     21954     21953     21955     21953     21956     21951     21957
     21957     21958     21957     21959     21957     21960     21960     21961
     21960     21962     21960     21963     21963     21964     21963     21965
     21963     21966     21966     21967     21966     21968     21968     21969
     21968     21970     21968     21971     21966     21972     21972     21973
     21972     21974     21972     21975     21976     21977     21976     21978
     21976     21979     21976     21980     21984     21982     21982     21980
     21982     21983     21980     21981     21980     21985     21993     21992
     21985     21986     21985     21987     21985     21991     21991     21988
     21988     21992     21988     21989     21988     21990     21993     21994
     21993     21995     21993     21996     21996     21997     21996     22004
     21996     21998     22004     22005     22004     22006     22004     22007
     21998     21999     21999     22001     21999     22000     22001     22002
     22001     22003     22001     22013     22013     22014     22013     22015
     22013     22016     22016     22017     22016     22018     22016     22019
     22019     22020     22019     22021     22021     22022     22021     22023
     22023     22024     22023     22025     22023     22026     22026     22027
     22026     22028     22028     22029     22028     22030     22030     22031
     22030     22032     22030     22033     22033     22034     22033     22035
     22035     22036     22035     22037     22037     22038     22037     22039
     22037     22040     22040     22041     22040     22042     22042     22043
     22042     22044     22044     22045     22044     22046     22044     22047
     22047     22048     22047     22049     22047     22050     22050     22051
     22050     22052     22050     22053     22053     22054     22053     22055
     22053     22056     22056     22057     22056     22058     22056     22059
     22007     22008     22008     22010     22008     22009     22010     22011
     22010     22012     22010     22060     22060     22061     22060     22062
     22060     22063     22063     22064     22063     22065     22063     22066
     22066     22067     22066     22068     22066     22069     22069     22070
     22069     22071     22069     22072     22072     22073     22072     22074
     22072     22075     22075     22076     22075     22077     22075     22078
     22078     22079     22078     22080     22078     22081     22081     22082
     22081     22083     22081     22084     22084     22085     22084     22086
     22084     22087     22087     22088     22087     22089     22087     22090
     22090     22091     22090     22092     22090     22093     22093     22094
     22093     22095     22093     22096     22096     22097     22096     22098
     22096     22099     22099     22100     22099     22101     22099     22102
     22102     22103     22102     22104     22102     22105     22105     22106
     22105     22107     22105     22108     22109     22111     22109     22110
     22111     22112     22109     22155     22155     22156     22155     22157
     22155     22152     22152     22153     22152     22154     22109     22113
     22113     22114     22113     22115     22113     22116     22116     22147
     22147     22152     22147     22148     22148     22149     22148     22150
     22148     22151     22116     22117     22117     22118     22117     22119
     22119     22120     22119     22121     22119     22122     22122     22123
     22122     22145     22145     22146     22145     22147     22122     22124
     22124     22125     22124     22134     22134     22139     22139     22140
     22139     22141     22139     22142     22142     22143     22142     22144
     22142     22145     22134     22135     22135     22136     22135     22137
     22135     22138     22124     22126     22126     22127     22126     22128
     22126     22129     22129     22130     22129     22131     22129     22132
     22132     22133     22132     22134     22132     22158     22158     22159
     22158     22160     22160     22161     22160     22162     22160     22163
     22158     22164     22164     22165     22164     22166     22164     22167
     22167     22168     22167     22169     22167     22170     22170     22171
     22170     22172     22170     22173     22173     22174     22173     22175
     22175     22176     22175     22177     22175     22178     22173     22179
     22179     22180     22179     22181     22179     22182     22183     22184
     22183     22188     22183     22192     22184     22185     22184     22186
     22184     22187     22188     22189     22188     22190     22188     22191
     22192     22193     22192     22194     22192     22195     22183     22196
     22196     22197     22196     22198     22196     22199     22199     22200
     22199     22201     22199     22205     22206     22207     22205     22202
     22202     22206     22202     22203     22202     22204     22207     22208
     22207     22209     22207     22210     22210     22211     22210     22218
     22210     22212     22218     22219     22218     22220     22218     22221
     22212     22213     22213     22215     22213     22214     22215     22216
     22215     22217     22215     22227     22227     22228     22227     22229
     22227     22230     22230     22231     22230     22232     22230     22233
     22233     22234     22233     22235     22233     22236     22236     22237
     22236     22238     22236     22239     22239     22240     22239     22241
     22239     22242     22242     22243     22242     22244     22242     22245
     22245     22246     22245     22247     22247     22248     22247     22249
     22249     22250     22249     22251     22249     22252     22252     22253
     22252     22254     22254     22255     22254     22256     22256     22257
     22256     22258     22256     22259     22259     22260     22259     22261
     22259     22262     22262     22263     22262     22264     22262     22265
     22265     22266     22265     22267     22265     22268     22268     22269
     22268     22270     22268     22271     22221     22222     22222     22224
     22222     22223     22224     22225     22224     22226     22224     22272
     22272     22273     22272     22274     22272     22275     22275     22276
     22275     22277     22275     22278     22278     22279     22278     22280
     22278     22281     22281     22282     22281     22283     22281     22284
     22284     22285     22284     22286     22284     22287     22287     22288
     22287     22289     22287     22290     22290     22291     22290     22292
     22290     22293     22293     22294     22293     22295     22293     22296
     22296     22297     22296     22298     22296     22299     22299     22300
     22299     22301     22299     22302     22302     22303     22302     22304
     22302     22305     22305     22306     22305     22307     22305     22308
     22308     22309     22308     22310     22308     22311     22311     22312
     22311     22313     22311     22314     22314     22315     22314     22316
     22314     22317     22317     22318     22317     22319     22317     22320
     22321     22322     22321     22323     22322     22323     22324     22325
     22324     22326     22325     22326     22327     22328     22327     22329
     22328     22329     22330     22331     22330     22332     22331     22332
     22333     22334     22333     22335     22334     22335     22336     22337
     22336     22338     22337     22338     22339     22340     22339     22341
     22340     22341     22342     22343     22342     22344     22343     22344
     22345     22346     22345     22347     22346     22347     22348     22349
     22348     22350     22349     22350     22351     22352     22351     22353
     22352     22353     22354     22355     22354     22356     22355     22356
     22357     22358     22357     22359     22358     22359     22360     22361
     22360     22362     22361     22362     22363     22364     22363     22365
     22364     22365     22366     22367     22366     22368     22367     22368
     22369     22370     22369     22371     22370     22371     22372     22373
     22372     22374     22373     22374     22375     22376     22375     22377
     22376     22377     22378     22379     22378     22380     22379     22380
     22381     22382     22381     22383     22382     22383     22384     22385
     22384     22386     22385     22386     22387     22388     22387     22389
     22388     22389     22390     22391     22390     22392     22391     22392
     22393     22394     22393     22395     22394     22395     22396     22397
     22396     22398     22397     22398     22399     22400     22399     22401
     22400     22401     22402     22403     22402     22404     22403     22404
     22405     22406     22405     22407     22406     22407     22408     22409
     22408     22410     22409     22410     22411     22412     22411     22413
     22412     22413     22414     22415     22414     22416     22415     22416
     22417     22418     22417     22419     22418     22419     22420     22421
     22420     22422     22421     22422     22423     22424     22423     22425
     22424     22425     22426     22427     22426     22428     22427     22428
     22429     22430     22429     22431     22430     22431     22432     22433
     22432     22434     22433     22434     22435     22436     22435     22437
     22436     22437     22438     22439     22438     22440     22439     22440
     22441     22442     22441     22443     22442     22443     22444     22445
     22444     22446     22445     22446     22447     22448     22447     22449
     22448     22449     22450     22451     22450     22452     22451     22452
     22453     22454     22453     22455     22454     22455     22456     22457
     22456     22458     22457     22458     22459     22460     22459     22461
     22460     22461     22462     22463     22462     22464     22463     22464
     22465     22466     22465     22467     22466     22467     22468     22469
     22468     22470     22469     22470     22471     22472     22471     22473
     22472     22473     22474     22475     22474     22476     22475     22476
     22477     22478     22477     22479     22478     22479     22480     22481
     22480     22482     22481     22482     22483     22484     22483     22485
     22484     22485     22486     22487     22486     22488     22487     22488
     22489     22490     22489     22491     22490     22491     22492     22493
     22492     22494     22493     22494     22495     22496     22495     22497
     22496     22497     22498     22499     22498     22500     22499     22500
     22501     22502     22501     22503     22502     22503     22504     22505
     22504     22506     22505     22506     22507     22508     22507     22509
     22508     22509     22510     22511     22510     22512     22511     22512
     22513     22514     22513     22515     22514     22515     22516     22517
     22516     22518     22517     22518     22519     22520     22519     22521
     22520     22521     22522     22523     22522     22524     22523     22524
     22525     22526     22525     22527     22526     22527     22528     22529
     22528     22530     22529     22530     22531     22532     22531     22533
     22532     22533     22534     22535     22534     22536     22535     22536
     22537     22538     22537     22539     22538     22539     22540     22541
     22540     22542     22541     22542     22543     22544     22543     22545
     22544     22545     22546     22547     22546     22548     22547     22548
     22549     22550     22549     22551     22550     22551     22552     22553
     22552     22554     22553     22554     22555     22556     22555     22557
     22556     22557     22558     22559     22558     22560     22559     22560
     22561     22562     22561     22563     22562     22563     22564     22565
     22564     22566     22565     22566     22567     22568     22567     22569
     22568     22569     22570     22571     22570     22572     22571     22572
     22573     22574     22573     22575     22574     22575     22576     22577
     22576     22578     22577     22578     22579     22580     22579     22581
     22580     22581     22582     22583     22582     22584     22583     22584
     22585     22586     22585     22587     22586     22587

     43129 !NTHETA: angles
         1         3         4         1         5         6         1         5         7
         1         5         8         1        47        44         1        47        48
         1        47        49         2         1         3         2         1         5
         2         1        47         3         1         5         3         1        47
         5         1        47         5         8         9         5         8        39
         6         5         7         6         5         8         7         5         8
         8         9        10         8         9        11         8        39        37
         8        39        40         8        39        44         9         8        39
         9        11        12         9        11        13         9        11        14
        10         9        11        11        14        15        11        14        16
        11        14        37        12        11        13        12        11        14
        13        11        14        14        16        17        14        16        18
        14        16        26        14        37        34        14        37        38
        14        37        39        15        14        16        15        14        37
        16        14        37        16        18        19        16        18        20
        16        18        21        16        26        24        16        26        27
        16        26        31        17        16        18        17        16        26
        18        16        26        18        21        22        18        21        23
        18        21        24        19        18        20        19        18        21
        20        18        21        21        24        25        21        24        26
        21        24        50        22        21        23        22        21        24
        23        21        24        24        26        27        24        26        31
        24        50        51        24        50        52        24        50        56
        25        24        26        25        24        50        26        24        50
        26        27        28        26        27        29        26        27        30
        26        31        32        26        31        33        26        31        34
        27        26        31        28        27        29        28        27        30
        29        27        30        31        34        35        31        34        36
        31        34        37        32        31        33        32        31        34
        33        31        34        34        37        38        34        37        39
        35        34        36        35        34        37        36        34        37
        37        39        40        37        39        44        38        37        39
        39        40        41        39        40        42        39        40        43
        39        44        45        39        44        46        39        44        47
        40        39        44        41        40        42        41        40        43
        42        40        43        44        47        48        44        47        49
        45        44        46        45        44        47        46        44        47
        48        47        49        50        52        53        50        52        54
        50        52        55        50        56        57        50        56        58
        50        56        59        51        50        52        51        50        56
        52        50        56        53        52        54        53        52        55
        54        52        55        56        59        60        56        59        61
        56        59        62        57        56        58        57        56        59
        58        56        59        59        62        63        59        62        64
        59        62        65        60        59        61        60        59        62
        61        59        62        62        65        66        62        65        67
        62        65        71        63        62        64        63        62        65
        64        62        65        65        67        68        65        67        69
        65        67        70        65        71        72        65        71        73
        65        71        74        66        65        67        66        65        71
        67        65        71        68        67        69        68        67        70
        69        67        70        72        71        73        72        71        74
        73        71        74        75        77        78        75        79        80
        75        79        81        75        79        82        75       121       118
        75       121       122        75       121       123        76        75        77
        76        75        79        76        75       121        77        75        79
        77        75       121        79        75       121        79        82        83
        79        82       113        80        79        81        80        79        82
        81        79        82        82        83        84        82        83        85
        82       113       111        82       113       114        82       113       118
        83        82       113        83        85        86        83        85        87
        83        85        88        84        83        85        85        88        89
        85        88        90        85        88       111        86        85        87
        86        85        88        87        85        88        88        90        91
        88        90        92        88        90       100        88       111       108
        88       111       112        88       111       113        89        88        90
        89        88       111        90        88       111        90        92        93
        90        92        94        90        92        95        90       100        98
        90       100       101        90       100       105        91        90        92
        91        90       100        92        90       100        92        95        96
        92        95        97        92        95        98        93        92        94
        93        92        95        94        92        95        95        98        99
        95        98       100        95        98       124        96        95        97
        96        95        98        97        95        98        98       100       101
        98       100       105        98       124       125        98       124       126
        98       124       130        99        98       100        99        98       124
       100        98       124       100       101       102       100       101       103
       100       101       104       100       105       106       100       105       107
       100       105       108       101       100       105       102       101       103
       102       101       104       103       101       104       105       108       109
       105       108       110       105       108       111       106       105       107
       106       105       108       107       105       108       108       111       112
       108       111       113       109       108       110       109       108       111
       110       108       111       111       113       114       111       113       118
       112       111       113       113       114       115       113       114       116
       113       114       117       113       118       119       113       118       120
       113       118       121       114       113       118       115       114       116
       115       114       117       116       114       117       118       121       122
       118       121       123       119       118       120       119       118       121
       120       118       121       122       121       123       124       126       127
       124       126       128       124       126       129       124       130       131
       124       130       132       124       130       133       125       124       126
       125       124       130       126       124       130       127       126       128
       127       126       129       128       126       129       130       133       134
       130       133       135       130       133       136       131       130       132
       131       130       133       132       130       133       133       136       137
       133       136       138       133       136       139       134       133       135
       134       133       136       135       133       136       136       139       140
       136       139       141       136       139       145       137       136       138
       137       136       139       138       136       139       139       141       142
       139       141       143       139       141       144       139       145       146
       139       145       147       139       145       148       140       139       141
       140       139       145       141       139       145       142       141       143
       142       141       144       143       141       144       146       145       147
       146       145       148       147       145       148       149       150       151
       149       150       152       149       150       165       149       153       154
       149       153       155       149       153       156       149       157       158
       149       157       159       149       157       160       149       161       162
       149       161       163       149       161       164       150       149       153
       150       149       157       150       149       161       150       165       166
       150       165       167       150       165       171       151       150       152
       151       150       165       152       150       165       153       149       157
       153       149       161       154       153       155       154       153       156
       155       153       156       157       149       161       158       157       159
       158       157       160       159       157       160       162       161       163
       162       161       164       163       161       164       165       171       168
       166       165       167       166       165       171       167       165       171
       168       172       173       169       168       170       169       168       171
       169       168       172       170       168       171       170       168       172
       171       168       172       172       173       174       172       173       175
       172       173       176       173       176       177       173       176       178
       173       176       184       174       173       175       174       173       176
       175       173       176       176       178       179       176       184       185
       176       184       186       176       184       187       177       176       178
       177       176       184       178       176       184       178       179       180
       178       179       181       179       181       182       179       181       183
       179       181       193       180       179       181       181       193       194
       181       193       195       181       193       196       182       181       183
       182       181       193       183       181       193       184       187       188
       185       184       186       185       184       187       186       184       187
       187       188       189       187       188       190       188       190       191
       188       190       192       188       190       240       189       188       190
       190       240       241       190       240       242       190       240       243
       191       190       192       191       190       240       192       190       240
       193       196       197       193       196       198       193       196       199
       194       193       195       194       193       196       195       193       196
       196       199       200       196       199       201       197       196       198
       197       196       199       198       196       199       199       201       202
       199       201       203       200       199       201       201       203       204
       201       203       205       201       203       206       202       201       203
       203       206       207       203       206       208       204       203       205
       204       203       206       205       203       206       206       208       209
       206       208       210       207       206       208       208       210       211
       208       210       212       208       210       213       209       208       210
       210       213       214       210       213       215       211       210       212
       211       210       213       212       210       213       213       215       216
       213       215       217       214       213       215       215       217       218
       215       217       219       215       217       220       216       215       217
       217       220       221       217       220       222       218       217       219
       218       217       220       219       217       220       220       222       223
       220       222       224       221       220       222       222       224       225
       222       224       226       222       224       227       223       222       224
       224       227       228       224       227       229       224       227       230
       225       224       226       225       224       227       226       224       227
       227       230       231       227       230       232       227       230       233
       228       227       229       228       227       230       229       227       230
       230       233       234       230       233       235       230       233       236
       231       230       232       231       230       233       232       230       233
       233       236       237       233       236       238       233       236       239
       234       233       235       234       233       236       235       233       236
       237       236       238       237       236       239       238       236       239
       240       243       244       240       243       245       240       243       246
       241       240       242       241       240       243       242       240       243
       243       246       247       243       246       248       243       246       249
       244       243       245       244       243       246       245       243       246
       246       249       250       246       249       251       246       249       252
       247       246       248       247       246       249       248       246       249
       249       252       253       249       252       254       249       252       255
       250       249       251       250       249       252       251       249       252
       252       255       256       252       255       257       252       255       258
       253       252       254       253       252       255       254       252       255
       255       258       259       255       258       260       255       258       261
       256       255       257       256       255       258       257       255       258
       258       261       262       258       261       263       258       261       264
       259       258       260       259       258       261       260       258       261
       261       264       265       261       264       266       261       264       267
       262       261       263       262       261       264       263       261       264
       264       267       268       264       267       269       264       267       270
       265       264       266       265       264       267       266       264       267
       267       270       271       267       270       272       267       270       273
       268       267       269       268       267       270       269       267       270
       270       273       274       270       273       275       270       273       276
       271       270       272       271       270       273       272       270       273
       273       276       277       273       276       278       273       276       279
       274       273       275       274       273       276       275       273       276
       276       279       280       276       279       281       276       279       282
       277       276       278       277       276       279       278       276       279
       279       282       283       279       282       284       279       282       285
       280       279       281       280       279       282       281       279       282
       282       285       286       282       285       287       282       285       288
       283       282       284       283       282       285       284       282       285
       286       285       287       286       285       288       287       285       288
       289       291       292       289       293       294       289       293       295
       289       293       296       289       335       332       289       335       336
       289       335       337       290       289       291       290       289       293
       290       289       335       291       289       293       291       289       335
       293       289       335       293       296       297       293       296       327
       294       293       295       294       293       296       295       293       296
       296       297       298       296       297       299       296       327       325
       296       327       328       296       327       332       297       296       327
       297       299       300       297       299       301       297       299       302
       298       297       299       299       302       303       299       302       304
       299       302       325       300       299       301       300       299       302
       301       299       302       302       304       305       302       304       306
       302       304       314       302       325       322       302       325       326
       302       325       327       303       302       304       303       302       325
       304       302       325       304       306       307       304       306       308
       304       306       309       304       314       312       304       314       315
       304       314       319       305       304       306       305       304       314
       306       304       314       306       309       310       306       309       311
       306       309       312       307       306       308       307       306       309
       308       306       309       309       312       313       309       312       314
       309       312       338       310       309       311       310       309       312
       311       309       312       312       314       315       312       314       319
       312       338       339       312       338       340       312       338       344
       313       312       314       313       312       338       314       312       338
       314       315       316       314       315       317       314       315       318
       314       319       320       314       319       321       314       319       322
       315       314       319       316       315       317       316       315       318
       317       315       318       319       322       323       319       322       324
       319       322       325       320       319       321       320       319       322
       321       319       322       322       325       326       322       325       327
       323       322       324       323       322       325       324       322       325
       325       327       328       325       327       332       326       325       327
       327       328       329       327       328       330       327       328       331
       327       332       333       327       332       334       327       332       335
       328       327       332       329       328       330       329       328       331
       330       328       331       332       335       336       332       335       337
       333       332       334       333       332       335       334       332       335
       336       335       337       338       340       341       338       340       342
       338       340       343       338       344       345       338       344       346
       338       344       347       339       338       340       339       338       344
       340       338       344       341       340       342       341       340       343
       342       340       343       344       347       348       344       347       349
       344       347       350       345       344       346       345       344       347
       346       344       347       347       350       351       347       350       352
       347       350       353       348       347       349       348       347       350
       349       347       350       350       353       354       350       353       355
       350       353       359       351       350       352       351       350       353
       352       350       353       353       355       356       353       355       357
       353       355       358       353       359       360       353       359       361
       353       359       362       354       353       355       354       353       359
       355       353       359       356       355       357       356       355       358
       357       355       358       360       359       361       360       359       362
       361       359       362       363       364       365       363       364       366
       363       364       367       363       368       369       363       368       370
       363       368       371       363       372       373       363       372       374
       363       372       375       363       376       377       363       376       378
       363       376       379       364       363       368       364       363       372
       364       363       376       365       364       366       365       364       367
       366       364       367       368       363       372       368       363       376
       369       368       370       369       368       371       370       368       371
       372       363       376       373       372       374       373       372       375
       374       372       375       376       379       380       376       379       381
       376       379       385       377       376       378       377       376       379
       378       376       379       379       385       382       380       379       381
       380       379       385       381       379       385       382       386       387
       383       382       384       383       382       385       383       382       386
       384       382       385       384       382       386       385       382       386
       386       387       388       386       387       389       386       387       390
       387       390       391       387       390       392       387       390       398
       388       387       389       388       387       390       389       387       390
       390       392       393       390       398       399       390       398       400
       390       398       401       391       390       392       391       390       398
       392       390       398       392       393       394       392       393       395
       393       395       396       393       395       397       393       395       407
       394       393       395       395       407       408       395       407       409
       395       407       410       396       395       397       396       395       407
       397       395       407       398       401       402       399       398       400
       399       398       401       400       398       401       401       402       403
       401       402       404       402       404       405       402       404       406
       402       404       452       403       402       404       404       452       453
       404       452       454       404       452       455       405       404       406
       405       404       452       406       404       452       407       410       411
       407       410       412       407       410       413       408       407       409
       408       407       410       409       407       410       410       413       414
       410       413       415       410       413       416       411       410       412
       411       410       413       412       410       413       413       416       417
       413       416       418       413       416       419       414       413       415
       414       413       416       415       413       416       416       419       420
       416       419       421       416       419       422       417       416       418
       417       416       419       418       416       419       419       422       423
       419       422       424       419       422       425       420       419       421
       420       419       422       421       419       422       422       425       426
       422       425       427       423       422       424       423       422       425
       424       422       425       425       427       428       425       427       429
       426       425       427       427       429       430       427       429       431
       427       429       432       428       427       429       429       432       433
       429       432       434       430       429       431       430       429       432
       431       429       432       432       434       435       432       434       436
       433       432       434       434       436       437       434       436       438
       434       436       439       435       434       436       436       439       440
       436       439       441       436       439       442       437       436       438
       437       436       439       438       436       439       439       442       443
       439       442       444       439       442       445       440       439       441
       440       439       442       441       439       442       442       445       446
       442       445       447       442       445       448       443       442       444
       443       442       445       444       442       445       445       448       449
       445       448       450       445       448       451       446       445       447
       446       445       448       447       445       448       449       448       450
       449       448       451       450       448       451       452       455       456
       452       455       457       452       455       458       453       452       454
       453       452       455       454       452       455       455       458       459
       455       458       460       455       458       461       456       455       457
       456       455       458       457       455       458       458       461       462
       458       461       463       458       461       464       459       458       460
       459       458       461       460       458       461       461       464       465
       461       464       466       461       464       467       462       461       463
       462       461       464       463       461       464       464       467       468
       464       467       469       464       467       470       465       464       466
       465       464       467       466       464       467       467       470       471
       467       470       472       467       470       473       468       467       469
       468       467       470       469       467       470       470       473       474
       470       473       475       470       473       476       471       470       472
       471       470       473       472       470       473       473       476       477
       473       476       478       473       476       479       474       473       475
       474       473       476       475       473       476       476       479       480
       476       479       481       476       479       482       477       476       478
       477       476       479       478       476       479       479       482       483
       479       482       484       479       482       485       480       479       481
       480       479       482       481       479       482       482       485       486
       482       485       487       482       485       488       483       482       484
       483       482       485       484       482       485       485       488       489
       485       488       490       485       488       491       486       485       487
       486       485       488       487       485       488       488       491       492
       488       491       493       488       491       494       489       488       490
       489       488       491       490       488       491       491       494       495
       491       494       496       491       494       497       492       491       493
       492       491       494       493       491       494       494       497       498
       494       497       499       494       497       500       495       494       496
       495       494       497       496       494       497       498       497       499
       498       497       500       499       497       500       501       503       504
       501       505       506       501       505       507       501       505       508
       501       547       544       501       547       548       501       547       549
       502       501       503       502       501       505       502       501       547
       503       501       505       503       501       547       505       501       547
       505       508       509       505       508       539       506       505       507
       506       505       508       507       505       508       508       509       510
       508       509       511       508       539       537       508       539       540
       508       539       544       509       508       539       509       511       512
       509       511       513       509       511       514       510       509       511
       511       514       515       511       514       516       511       514       537
       512       511       513       512       511       514       513       511       514
       514       516       517       514       516       518       514       516       526
       514       537       534       514       537       538       514       537       539
       515       514       516       515       514       537       516       514       537
       516       518       519       516       518       520       516       518       521
       516       526       524       516       526       527       516       526       531
       517       516       518       517       516       526       518       516       526
       518       521       522       518       521       523       518       521       524
       519       518       520       519       518       521       520       518       521
       521       524       525       521       524       526       521       524       550
       522       521       523       522       521       524       523       521       524
       524       526       527       524       526       531       524       550       551
       524       550       552       524       550       556       525       524       526
       525       524       550       526       524       550       526       527       528
       526       527       529       526       527       530       526       531       532
       526       531       533       526       531       534       527       526       531
       528       527       529       528       527       530       529       527       530
       531       534       535       531       534       536       531       534       537
       532       531       533       532       531       534       533       531       534
       534       537       538       534       537       539       535       534       536
       535       534       537       536       534       537       537       539       540
       537       539       544       538       537       539       539       540       541
       539       540       542       539       540       543       539       544       545
       539       544       546       539       544       547       540       539       544
       541       540       542       541       540       543       542       540       543
       544       547       548       544       547       549       545       544       546
       545       544       547       546       544       547       548       547       549
       550       552       553       550       552       554       550       552       555
       550       556       557       550       556       558       550       556       559
       551       550       552       551       550       556       552       550       556
       553       552       554       553       552       555       554       552       555
       556       559       560       556       559       561       556       559       562
       557       556       558       557       556       559       558       556       559
       559       562       563       559       562       564       559       562       565
       560       559       561       560       559       562       561       559       562
       562       565       566       562       565       567       562       565       571
       563       562       564       563       562       565       564       562       565
       565       567       568       565       567       569       565       567       570
       565       571       572       565       571       573       565       571       574
       566       565       567       566       565       571       567       565       571
       568       567       569       568       567       570       569       567       570
       572       571       573       572       571       574       573       571       574
       575       579       580       575       579       581       575       579       582
       576       575       577       576       575       578       576       575       579
       577       575       578       577       575       579       578       575       579
       579       582       583       579       582       584       579       582       588
       580       579       581       580       579       582       581       579       582
       582       588       585       583       582       584       583       582       588
       584       582       588       585       589       590       586       585       587
       586       585       588       586       585       589       587       585       588
       587       585       589       588       585       589       589       590       591
       589       590       592       589       590       593       590       593       594
       590       593       595       590       593       601       591       590       592
       591       590       593       592       590       593       593       595       596
       593       601       602       593       601       603       593       601       604
       594       593       595       594       593       601       595       593       601
       595       596       597       595       596       598       596       598       599
       596       598       600       596       598       610       597       596       598
       598       610       611       598       610       612       598       610       613
       599       598       600       599       598       610       600       598       610
       601       604       605       602       601       603       602       601       604
       603       601       604       604       605       606       604       605       607
       605       607       608       605       607       609       605       607       657
       606       605       607       607       657       658       607       657       659
       607       657       660       608       607       609       608       607       657
       609       607       657       610       613       614       610       613       615
       610       613       616       611       610       612       611       610       613
       612       610       613       613       616       617       613       616       618
       614       613       615       614       613       616       615       613       616
       616       618       619       616       618       620       617       616       618
       618       620       621       618       620       622       618       620       623
       619       618       620       620       623       624       620       623       625
       621       620       622       621       620       623       622       620       623
       623       625       626       623       625       627       624       623       625
       625       627       628       625       627       629       625       627       630
       626       625       627       627       630       631       627       630       632
       628       627       629       628       627       630       629       627       630
       630       632       633       630       632       634       631       630       632
       632       634       635       632       634       636       632       634       637
       633       632       634       634       637       638       634       637       639
       635       634       636       635       634       637       636       634       637
       637       639       640       637       639       641       638       637       639
       639       641       642       639       641       643       639       641       644
       640       639       641       641       644       645       641       644       646
       641       644       647       642       641       643       642       641       644
       643       641       644       644       647       648       644       647       649
       644       647       650       645       644       646       645       644       647
       646       644       647       647       650       651       647       650       652
       647       650       653       648       647       649       648       647       650
       649       647       650       650       653       654       650       653       655
       650       653       656       651       650       652       651       650       653
       652       650       653       654       653       655       654       653       656
       655       653       656       657       660       661       657       660       662
       657       660       663       658       657       659       658       657       660
       659       657       660       660       663       664       660       663       665
       660       663       666       661       660       662       661       660       663
       662       660       663       663       666       667       663       666       668
       663       666       669       664       663       665       664       663       666
       665       663       666       666       669       670       666       669       671
       666       669       672       667       666       668       667       666       669
       668       666       669       669       672       673       669       672       674
       669       672       675       670       669       671       670       669       672
       671       669       672       672       675       676       672       675       677
       672       675       678       673       672       674       673       672       675
       674       672       675       675       678       679       675       678       680
       675       678       681       676       675       677       676       675       678
       677       675       678       678       681       682       678       681       683
       678       681       684       679       678       680       679       678       681
       680       678       681       681       684       685       681       684       686
       681       684       687       682       681       683       682       681       684
       683       681       684       684       687       688       684       687       689
       684       687       690       685       684       686       685       684       687
       686       684       687       687       690       691       687       690       692
       687       690       693       688       687       689       688       687       690
       689       687       690       690       693       694       690       693       695
       690       693       696       691       690       692       691       690       693
       692       690       693       693       696       697       693       696       698
       693       696       699       694       693       695       694       693       696
       695       693       696       696       699       700       696       699       701
       696       699       702       697       696       698       697       696       699
       698       696       699       699       702       703       699       702       704
       699       702       705       700       699       701       700       699       702
       701       699       702       703       702       704       703       702       705
       704       702       705       706       710       711       706       710       712
       706       710       713       707       706       708       707       706       709
       707       706       710       708       706       709       708       706       710
       709       706       710       710       713       714       710       713       715
       710       713       719       711       710       712       711       710       713
       712       710       713       713       719       716       714       713       715
       714       713       719       715       713       719       716       720       721
       717       716       718       717       716       719       717       716       720
       718       716       719       718       716       720       719       716       720
       720       721       722       720       721       723       720       721       724
       721       724       725       721       724       726       721       724       732
       722       721       723       722       721       724       723       721       724
       724       726       727       724       732       733       724       732       734
       724       732       735       725       724       726       725       724       732
       726       724       732       726       727       728       726       727       729
       727       729       730       727       729       731       727       729       741
       728       727       729       729       741       742       729       741       743
       729       741       744       730       729       731       730       729       741
       731       729       741       732       735       736       733       732       734
       733       732       735       734       732       735       735       736       737
       735       736       738       736       738       739       736       738       740
       736       738       788       737       736       738       738       788       789
       738       788       790       738       788       791       739       738       740
       739       738       788       740       738       788       741       744       745
       741       744       746       741       744       747       742       741       743
       742       741       744       743       741       744       744       747       748
       744       747       749       744       747       750       745       744       746
       745       744       747       746       744       747       747       750       751
       747       750       752       747       750       753       748       747       749
       748       747       750       749       747       750       750       753       754
       750       753       755       750       753       756       751       750       752
       751       750       753       752       750       753       753       756       757
       753       756       758       753       756       759       754       753       755
       754       753       756       755       753       756       756       759       760
       756       759       761       757       756       758       757       756       759
       758       756       759       759       761       762       759       761       763
       760       759       761       761       763       764       761       763       765
       761       763       766       762       761       763       763       766       767
       763       766       768       763       766       769       764       763       765
       764       763       766       765       763       766       766       769       770
       766       769       771       766       769       772       767       766       768
       767       766       769       768       766       769       769       772       773
       769       772       774       769       772       775       770       769       771
       770       769       772       771       769       772       772       775       776
       772       775       777       772       775       778       773       772       774
       773       772       775       774       772       775       775       778       779
       775       778       780       775       778       781       776       775       777
       776       775       778       777       775       778       778       781       782
       778       781       783       778       781       784       779       778       780
       779       778       781       780       778       781       781       784       785
       781       784       786       781       784       787       782       781       783
       782       781       784       783       781       784       785       784       786
       785       784       787       786       784       787       788       791       792
       788       791       793       788       791       794       789       788       790
       789       788       791       790       788       791       791       794       795
       791       794       796       791       794       797       792       791       793
       792       791       794       793       791       794       794       797       798
       794       797       799       794       797       800       795       794       796
       795       794       797       796       794       797       797       800       801
       797       800       802       797       800       803       798       797       799
       798       797       800       799       797       800       800       803       804
       800       803       805       800       803       806       801       800       802
       801       800       803       802       800       803       803       806       807
       803       806       808       803       806       809       804       803       805
       804       803       806       805       803       806       806       809       810
       806       809       811       806       809       812       807       806       808
       807       806       809       808       806       809       809       812       813
       809       812       814       809       812       815       810       809       811
       810       809       812       811       809       812       812       815       816
       812       815       817       812       815       818       813       812       814
       813       812       815       814       812       815       815       818       819
       815       818       820       815       818       821       816       815       817
       816       815       818       817       815       818       818       821       822
       818       821       823       818       821       824       819       818       820
       819       818       821       820       818       821       821       824       825
       821       824       826       821       824       827       822       821       823
       822       821       824       823       821       824       824       827       828
       824       827       829       824       827       830       825       824       826
       825       824       827       826       824       827       827       830       831
       827       830       832       827       830       833       828       827       829
       828       827       830       829       827       830       830       833       834
       830       833       835       830       833       836       831       830       832
       831       830       833       832       830       833       834       833       835
       834       833       836       835       833       836       837       839       840
       837       841       842       837       841       843       837       841       844
       837       883       880       837       883       884       837       883       885
       838       837       839       838       837       841       838       837       883
       839       837       841       839       837       883       841       837       883
       841       844       845       841       844       875       842       841       843
       842       841       844       843       841       844       844       845       846
       844       845       847       844       875       873       844       875       876
       844       875       880       845       844       875       845       847       848
       845       847       849       845       847       850       846       845       847
       847       850       851       847       850       852       847       850       873
       848       847       849       848       847       850       849       847       850
       850       852       853       850       852       854       850       852       862
       850       873       870       850       873       874       850       873       875
       851       850       852       851       850       873       852       850       873
       852       854       855       852       854       856       852       854       857
       852       862       860       852       862       863       852       862       867
       853       852       854       853       852       862       854       852       862
       854       857       858       854       857       859       854       857       860
       855       854       856       855       854       857       856       854       857
       857       860       861       857       860       862       857       860       886
       858       857       859       858       857       860       859       857       860
       860       862       863       860       862       867       860       886       887
       860       886       888       860       886       892       861       860       862
       861       860       886       862       860       886       862       863       864
       862       863       865       862       863       866       862       867       868
       862       867       869       862       867       870       863       862       867
       864       863       865       864       863       866       865       863       866
       867       870       871       867       870       872       867       870       873
       868       867       869       868       867       870       869       867       870
       870       873       874       870       873       875       871       870       872
       871       870       873       872       870       873       873       875       876
       873       875       880       874       873       875       875       876       877
       875       876       878       875       876       879       875       880       881
       875       880       882       875       880       883       876       875       880
       877       876       878       877       876       879       878       876       879
       880       883       884       880       883       885       881       880       882
       881       880       883       882       880       883       884       883       885
       886       888       889       886       888       890       886       888       891
       886       892       893       886       892       894       886       892       895
       887       886       888       887       886       892       888       886       892
       889       888       890       889       888       891       890       888       891
       892       895       896       892       895       897       892       895       898
       893       892       894       893       892       895       894       892       895
       895       898       899       895       898       900       895       898       901
       896       895       897       896       895       898       897       895       898
       898       901       902       898       901       903       898       901       907
       899       898       900       899       898       901       900       898       901
       901       903       904       901       903       905       901       903       906
       901       907       908       901       907       909       901       907       910
       902       901       903       902       901       907       903       901       907
       904       903       905       904       903       906       905       903       906
       908       907       909       908       907       910       909       907       910
       911       913       914       911       915       916       911       915       917
       911       915       918       911       957       954       911       957       958
       911       957       959       912       911       913       912       911       915
       912       911       957       913       911       915       913       911       957
       915       911       957       915       918       919       915       918       949
       916       915       917       916       915       918       917       915       918
       918       919       920       918       919       921       918       949       947
       918       949       950       918       949       954       919       918       949
       919       921       922       919       921       923       919       921       924
       920       919       921       921       924       925       921       924       926
       921       924       947       922       921       923       922       921       924
       923       921       924       924       926       927       924       926       928
       924       926       936       924       947       944       924       947       948
       924       947       949       925       924       926       925       924       947
       926       924       947       926       928       929       926       928       930
       926       928       931       926       936       934       926       936       937
       926       936       941       927       926       928       927       926       936
       928       926       936       928       931       932       928       931       933
       928       931       934       929       928       930       929       928       931
       930       928       931       931       934       935       931       934       936
       931       934       960       932       931       933       932       931       934
       933       931       934       934       936       937       934       936       941
       934       960       961       934       960       962       934       960       966
       935       934       936       935       934       960       936       934       960
       936       937       938       936       937       939       936       937       940
       936       941       942       936       941       943       936       941       944
       937       936       941       938       937       939       938       937       940
       939       937       940       941       944       945       941       944       946
       941       944       947       942       941       943       942       941       944
       943       941       944       944       947       948       944       947       949
       945       944       946       945       944       947       946       944       947
       947       949       950       947       949       954       948       947       949
       949       950       951       949       950       952       949       950       953
       949       954       955       949       954       956       949       954       957
       950       949       954       951       950       952       951       950       953
       952       950       953       954       957       958       954       957       959
       955       954       956       955       954       957       956       954       957
       958       957       959       960       962       963       960       962       964
       960       962       965       960       966       967       960       966       968
       960       966       969       961       960       962       961       960       966
       962       960       966       963       962       964       963       962       965
       964       962       965       966       969       970       966       969       971
       966       969       972       967       966       968       967       966       969
       968       966       969       969       972       973       969       972       974
       969       972       975       970       969       971       970       969       972
       971       969       972       972       975       976       972       975       977
       972       975       981       973       972       974       973       972       975
       974       972       975       975       977       978       975       977       979
       975       977       980       975       981       982       975       981       983
       975       981       984       976       975       977       976       975       981
       977       975       981       978       977       979       978       977       980
       979       977       980       982       981       983       982       981       984
       983       981       984       985       989       990       985       989       991
       985       989       992       986       985       987       986       985       988
       986       985       989       987       985       988       987       985       989
       988       985       989       989       992       993       989       992       994
       989       992       998       990       989       991       990       989       992
       991       989       992       992       998       995       993       992       994
       993       992       998       994       992       998       995       999      1000
       996       995       997       996       995       998       996       995       999
       997       995       998       997       995       999       998       995       999
       999      1000      1001       999      1000      1002       999      1000      1003
      1000      1003      1004      1000      1003      1005      1000      1003      1011
      1001      1000      1002      1001      1000      1003      1002      1000      1003
      1003      1005      1006      1003      1011      1012      1003      1011      1013
      1003      1011      1014      1004      1003      1005      1004      1003      1011
      1005      1003      1011      1005      1006      1007      1005      1006      1008
      1006      1008      1009      1006      1008      1010      1006      1008      1020
      1007      1006      1008      1008      1020      1021      1008      1020      1022
      1008      1020      1023      1009      1008      1010      1009      1008      1020
      1010      1008      1020      1011      1014      1015      1012      1011      1013
      1012      1011      1014      1013      1011      1014      1014      1015      1016
      1014      1015      1017      1015      1017      1018      1015      1017      1019
      1015      1017      1067      1016      1015      1017      1017      1067      1068
      1017      1067      1069      1017      1067      1070      1018      1017      1019
      1018      1017      1067      1019      1017      1067      1020      1023      1024
      1020      1023      1025      1020      1023      1026      1021      1020      1022
      1021      1020      1023      1022      1020      1023      1023      1026      1027
      1023      1026      1028      1024      1023      1025      1024      1023      1026
      1025      1023      1026      1026      1028      1029      1026      1028      1030
      1027      1026      1028      1028      1030      1031      1028      1030      1032
      1028      1030      1033      1029      1028      1030      1030      1033      1034
      1030      1033      1035      1031      1030      1032      1031      1030      1033
      1032      1030      1033      1033      1035      1036      1033      1035      1037
      1034      1033      1035      1035      1037      1038      1035      1037      1039
      1035      1037      1040      1036      1035      1037      1037      1040      1041
      1037      1040      1042      1038      1037      1039      1038      1037      1040
      1039      1037      1040      1040      1042      1043      1040      1042      1044
      1041      1040      1042      1042      1044      1045      1042      1044      1046
      1042      1044      1047      1043      1042      1044      1044      1047      1048
      1044      1047      1049      1045      1044      1046      1045      1044      1047
      1046      1044      1047      1047      1049      1050      1047      1049      1051
      1048      1047      1049      1049      1051      1052      1049      1051      1053
      1049      1051      1054      1050      1049      1051      1051      1054      1055
      1051      1054      1056      1051      1054      1057      1052      1051      1053
      1052      1051      1054      1053      1051      1054      1054      1057      1058
      1054      1057      1059      1054      1057      1060      1055      1054      1056
      1055      1054      1057      1056      1054      1057      1057      1060      1061
      1057      1060      1062      1057      1060      1063      1058      1057      1059
      1058      1057      1060      1059      1057      1060      1060      1063      1064
      1060      1063      1065      1060      1063      1066      1061      1060      1062
      1061      1060      1063      1062      1060      1063      1064      1063      1065
      1064      1063      1066      1065      1063      1066      1067      1070      1071
      1067      1070      1072      1067      1070      1073      1068      1067      1069
      1068      1067      1070      1069      1067      1070      1070      1073      1074
      1070      1073      1075      1070      1073      1076      1071      1070      1072
      1071      1070      1073      1072      1070      1073      1073      1076      1077
      1073      1076      1078      1073      1076      1079      1074      1073      1075
      1074      1073      1076      1075      1073      1076      1076      1079      1080
      1076      1079      1081      1076      1079      1082      1077      1076      1078
      1077      1076      1079      1078      1076      1079      1079      1082      1083
      1079      1082      1084      1079      1082      1085      1080      1079      1081
      1080      1079      1082      1081      1079      1082      1082      1085      1086
      1082      1085      1087      1082      1085      1088      1083      1082      1084
      1083      1082      1085      1084      1082      1085      1085      1088      1089
      1085      1088      1090      1085      1088      1091      1086      1085      1087
      1086      1085      1088      1087      1085      1088      1088      1091      1092
      1088      1091      1093      1088      1091      1094      1089      1088      1090
      1089      1088      1091      1090      1088      1091      1091      1094      1095
      1091      1094      1096      1091      1094      1097      1092      1091      1093
      1092      1091      1094      1093      1091      1094      1094      1097      1098
      1094      1097      1099      1094      1097      1100      1095      1094      1096
      1095      1094      1097      1096      1094      1097      1097      1100      1101
      1097      1100      1102      1097      1100      1103      1098      1097      1099
      1098      1097      1100      1099      1097      1100      1100      1103      1104
      1100      1103      1105      1100      1103      1106      1101      1100      1102
      1101      1100      1103      1102      1100      1103      1103      1106      1107
      1103      1106      1108      1103      1106      1109      1104      1103      1105
      1104      1103      1106      1105      1103      1106      1106      1109      1110
      1106      1109      1111      1106      1109      1112      1107      1106      1108
      1107      1106      1109      1108      1106      1109      1109      1112      1113
      1109      1112      1114      1109      1112      1115      1110      1109      1111
      1110      1109      1112      1111      1109      1112      1113      1112      1114
      1113      1112      1115      1114      1112      1115      1116      1118      1119
      1116      1120      1121      1116      1120      1122      1116      1120      1123
      1116      1162      1159      1116      1162      1163      1116      1162      1164
      1117      1116      1118      1117      1116      1120      1117      1116      1162
      1118      1116      1120      1118      1116      1162      1120      1116      1162
      1120      1123      1124      1120      1123      1154      1121      1120      1122
      1121      1120      1123      1122      1120      1123      1123      1124      1125
      1123      1124      1126      1123      1154      1152      1123      1154      1155
      1123      1154      1159      1124      1123      1154      1124      1126      1127
      1124      1126      1128      1124      1126      1129      1125      1124      1126
      1126      1129      1130      1126      1129      1131      1126      1129      1152
      1127      1126      1128      1127      1126      1129      1128      1126      1129
      1129      1131      1132      1129      1131      1133      1129      1131      1141
      1129      1152      1149      1129      1152      1153      1129      1152      1154
      1130      1129      1131      1130      1129      1152      1131      1129      1152
      1131      1133      1134      1131      1133      1135      1131      1133      1136
      1131      1141      1139      1131      1141      1142      1131      1141      1146
      1132      1131      1133      1132      1131      1141      1133      1131      1141
      1133      1136      1137      1133      1136      1138      1133      1136      1139
      1134      1133      1135      1134      1133      1136      1135      1133      1136
      1136      1139      1140      1136      1139      1141      1136      1139      1165
      1137      1136      1138      1137      1136      1139      1138      1136      1139
      1139      1141      1142      1139      1141      1146      1139      1165      1166
      1139      1165      1167      1139      1165      1171      1140      1139      1141
      1140      1139      1165      1141      1139      1165      1141      1142      1143
      1141      1142      1144      1141      1142      1145      1141      1146      1147
      1141      1146      1148      1141      1146      1149      1142      1141      1146
      1143      1142      1144      1143      1142      1145      1144      1142      1145
      1146      1149      1150      1146      1149      1151      1146      1149      1152
      1147      1146      1148      1147      1146      1149      1148      1146      1149
      1149      1152      1153      1149      1152      1154      1150      1149      1151
      1150      1149      1152      1151      1149      1152      1152      1154      1155
      1152      1154      1159      1153      1152      1154      1154      1155      1156
      1154      1155      1157      1154      1155      1158      1154      1159      1160
      1154      1159      1161      1154      1159      1162      1155      1154      1159
      1156      1155      1157      1156      1155      1158      1157      1155      1158
      1159      1162      1163      1159      1162      1164      1160      1159      1161
      1160      1159      1162      1161      1159      1162      1163      1162      1164
      1165      1167      1168      1165      1167      1169      1165      1167      1170
      1165      1171      1172      1165      1171      1173      1165      1171      1174
      1166      1165      1167      1166      1165      1171      1167      1165      1171
      1168      1167      1169      1168      1167      1170      1169      1167      1170
      1171      1174      1175      1171      1174      1176      1171      1174      1177
      1172      1171      1173      1172      1171      1174      1173      1171      1174
      1174      1177      1178      1174      1177      1179      1174      1177      1180
      1175      1174      1176      1175      1174      1177      1176      1174      1177
      1177      1180      1181      1177      1180      1182      1177      1180      1186
      1178      1177      1179      1178      1177      1180      1179      1177      1180
      1180      1182      1183      1180      1182      1184      1180      1182      1185
      1180      1186      1187      1180      1186      1188      1180      1186      1189
      1181      1180      1182      1181      1180      1186      1182      1180      1186
      1183      1182      1184      1183      1182      1185      1184      1182      1185
      1187      1186      1188      1187      1186      1189      1188      1186      1189
      1190      1191      1192      1190      1191      1193      1190      1191      1194
      1190      1195      1196      1190      1195      1197      1190      1195      1198
      1190      1199      1200      1190      1199      1201      1190      1199      1202
      1190      1203      1204      1190      1203      1205      1190      1203      1206
      1191      1190      1195      1191      1190      1199      1191      1190      1203
      1192      1191      1193      1192      1191      1194      1193      1191      1194
      1195      1190      1199      1195      1190      1203      1196      1195      1197
      1196      1195      1198      1197      1195      1198      1199      1190      1203
      1200      1199      1201      1200      1199      1202      1201      1199      1202
      1203      1206      1207      1203      1206      1208      1203      1206      1212
      1204      1203      1205      1204      1203      1206      1205      1203      1206
      1206      1212      1209      1207      1206      1208      1207      1206      1212
      1208      1206      1212      1209      1213      1214      1210      1209      1211
      1210      1209      1212      1210      1209      1213      1211      1209      1212
      1211      1209      1213      1212      1209      1213      1213      1214      1215
      1213      1214      1216      1213      1214      1217      1214      1217      1218
      1214      1217      1219      1214      1217      1225      1215      1214      1216
      1215      1214      1217      1216      1214      1217      1217      1219      1220
      1217      1225      1226      1217      1225      1227      1217      1225      1228
      1218      1217      1219      1218      1217      1225      1219      1217      1225
      1219      1220      1221      1219      1220      1222      1220      1222      1223
      1220      1222      1224      1220      1222      1234      1221      1220      1222
      1222      1234      1235      1222      1234      1236      1222      1234      1237
      1223      1222      1224      1223      1222      1234      1224      1222      1234
      1225      1228      1229      1226      1225      1227      1226      1225      1228
      1227      1225      1228      1228      1229      1230      1228      1229      1231
      1229      1231      1232      1229      1231      1233      1229      1231      1279
      1230      1229      1231      1231      1279      1280      1231      1279      1281
      1231      1279      1282      1232      1231      1233      1232      1231      1279
      1233      1231      1279      1234      1237      1238      1234      1237      1239
      1234      1237      1240      1235      1234      1236      1235      1234      1237
      1236      1234      1237      1237      1240      1241      1237      1240      1242
      1237      1240      1243      1238      1237      1239      1238      1237      1240
      1239      1237      1240      1240      1243      1244      1240      1243      1245
      1240      1243      1246      1241      1240      1242      1241      1240      1243
      1242      1240      1243      1243      1246      1247      1243      1246      1248
      1243      1246      1249      1244      1243      1245      1244      1243      1246
      1245      1243      1246      1246      1249      1250      1246      1249      1251
      1246      1249      1252      1247      1246      1248      1247      1246      1249
      1248      1246      1249      1249      1252      1253      1249      1252      1254
      1250      1249      1251      1250      1249      1252      1251      1249      1252
      1252      1254      1255      1252      1254      1256      1253      1252      1254
      1254      1256      1257      1254      1256      1258      1254      1256      1259
      1255      1254      1256      1256      1259      1260      1256      1259      1261
      1257      1256      1258      1257      1256      1259      1258      1256      1259
      1259      1261      1262      1259      1261      1263      1260      1259      1261
      1261      1263      1264      1261      1263      1265      1261      1263      1266
      1262      1261      1263      1263      1266      1267      1263      1266      1268
      1263      1266      1269      1264      1263      1265      1264      1263      1266
      1265      1263      1266      1266      1269      1270      1266      1269      1271
      1266      1269      1272      1267      1266      1268      1267      1266      1269
      1268      1266      1269      1269      1272      1273      1269      1272      1274
      1269      1272      1275      1270      1269      1271      1270      1269      1272
      1271      1269      1272      1272      1275      1276      1272      1275      1277
      1272      1275      1278      1273      1272      1274      1273      1272      1275
      1274      1272      1275      1276      1275      1277      1276      1275      1278
      1277      1275      1278      1279      1282      1283      1279      1282      1284
      1279      1282      1285      1280      1279      1281      1280      1279      1282
      1281      1279      1282      1282      1285      1286      1282      1285      1287
      1282      1285      1288      1283      1282      1284      1283      1282      1285
      1284      1282      1285      1285      1288      1289      1285      1288      1290
      1285      1288      1291      1286      1285      1287      1286      1285      1288
      1287      1285      1288      1288      1291      1292      1288      1291      1293
      1288      1291      1294      1289      1288      1290      1289      1288      1291
      1290      1288      1291      1291      1294      1295      1291      1294      1296
      1291      1294      1297      1292      1291      1293      1292      1291      1294
      1293      1291      1294      1294      1297      1298      1294      1297      1299
      1294      1297      1300      1295      1294      1296      1295      1294      1297
      1296      1294      1297      1297      1300      1301      1297      1300      1302
      1297      1300      1303      1298      1297      1299      1298      1297      1300
      1299      1297      1300      1300      1303      1304      1300      1303      1305
      1300      1303      1306      1301      1300      1302      1301      1300      1303
      1302      1300      1303      1303      1306      1307      1303      1306      1308
      1303      1306      1309      1304      1303      1305      1304      1303      1306
      1305      1303      1306      1306      1309      1310      1306      1309      1311
      1306      1309      1312      1307      1306      1308      1307      1306      1309
      1308      1306      1309      1309      1312      1313      1309      1312      1314
      1309      1312      1315      1310      1309      1311      1310      1309      1312
      1311      1309      1312      1312      1315      1316      1312      1315      1317
      1312      1315      1318      1313      1312      1314      1313      1312      1315
      1314      1312      1315      1315      1318      1319      1315      1318      1320
      1315      1318      1321      1316      1315      1317      1316      1315      1318
      1317      1315      1318      1318      1321      1322      1318      1321      1323
      1318      1321      1324      1319      1318      1320      1319      1318      1321
      1320      1318      1321      1321      1324      1325      1321      1324      1326
      1321      1324      1327      1322      1321      1323      1322      1321      1324
      1323      1321      1324      1325      1324      1326      1325      1324      1327
      1326      1324      1327      1328      1329      1330      1328      1329      1331
      1328      1329      1332      1328      1333      1334      1328      1333      1335
      1328      1333      1336      1328      1337      1338      1328      1337      1339
      1328      1337      1340      1328      1341      1342      1328      1341      1343
      1328      1341      1344      1329      1328      1333      1329      1328      1337
      1329      1328      1341      1330      1329      1331      1330      1329      1332
      1331      1329      1332      1333      1328      1337      1333      1328      1341
      1334      1333      1335      1334      1333      1336      1335      1333      1336
      1337      1328      1341      1338      1337      1339      1338      1337      1340
      1339      1337      1340      1341      1344      1345      1341      1344      1346
      1341      1344      1351      1342      1341      1343      1342      1341      1344
      1343      1341      1344      1344      1351      1347      1345      1344      1346
      1345      1344      1351      1346      1344      1351      1347      1350      1352
      1348      1347      1349      1348      1347      1350      1348      1347      1351
      1349      1347      1350      1349      1347      1351      1350      1347      1351
      1350      1352      1353      1350      1352      1354      1350      1352      1357
      1352      1357      1355      1352      1357      1358      1352      1357      1359
      1353      1352      1354      1353      1352      1357      1354      1352      1357
      1355      1357      1358      1355      1357      1359      1355      1407      1408
      1355      1407      1409      1356      1355      1357      1356      1355      1407
      1357      1355      1407      1357      1359      1360      1357      1359      1361
      1357      1359      1363      1358      1357      1359      1359      1361      1362
      1359      1363      1364      1359      1363      1365      1360      1359      1361
      1360      1359      1363      1361      1359      1363      1363      1365      1366
      1363      1365      1367      1364      1363      1365      1365      1367      1368
      1365      1367      1369      1365      1367      1370      1366      1365      1367
      1367      1370      1371      1367      1370      1372      1367      1370      1373
      1368      1367      1369      1368      1367      1370      1369      1367      1370
      1370      1373      1374      1370      1373      1375      1370      1373      1376
      1371      1370      1372      1371      1370      1373      1372      1370      1373
      1373      1376      1377      1373      1376      1378      1373      1376      1379
      1374      1373      1375      1374      1373      1376      1375      1373      1376
      1376      1379      1380      1376      1379      1381      1376      1379      1382
      1377      1376      1378      1377      1376      1379      1378      1376      1379
      1379      1382      1383      1379      1382      1384      1379      1382      1385
      1380      1379      1381      1380      1379      1382      1381      1379      1382
      1382      1385      1386      1382      1385      1387      1382      1385      1388
      1383      1382      1384      1383      1382      1385      1384      1382      1385
      1385      1388      1389      1385      1388      1390      1385      1388      1391
      1386      1385      1387      1386      1385      1388      1387      1385      1388
      1388      1391      1392      1388      1391      1393      1388      1391      1394
      1389      1388      1390      1389      1388      1391      1390      1388      1391
      1391      1394      1395      1391      1394      1396      1391      1394      1397
      1392      1391      1393      1392      1391      1394      1393      1391      1394
      1394      1397      1398      1394      1397      1399      1394      1397      1400
      1395      1394      1396      1395      1394      1397      1396      1394      1397
      1397      1400      1401      1397      1400      1402      1397      1400      1403
      1398      1397      1399      1398      1397      1400      1399      1397      1400
      1400      1403      1404      1400      1403      1405      1400      1403      1406
      1401      1400      1402      1401      1400      1403      1402      1400      1403
      1404      1403      1405      1404      1403      1406      1405      1403      1406
      1407      1409      1410      1407      1409      1411      1407      1409      1412
      1408      1407      1409      1409      1412      1413      1409      1412      1414
      1409      1412      1415      1410      1409      1411      1410      1409      1412
      1411      1409      1412      1412      1415      1416      1412      1415      1417
      1412      1415      1418      1413      1412      1414      1413      1412      1415
      1414      1412      1415      1415      1418      1419      1415      1418      1420
      1415      1418      1421      1416      1415      1417      1416      1415      1418
      1417      1415      1418      1418      1421      1422      1418      1421      1423
      1418      1421      1424      1419      1418      1420      1419      1418      1421
      1420      1418      1421      1421      1424      1425      1421      1424      1426
      1421      1424      1427      1422      1421      1423      1422      1421      1424
      1423      1421      1424      1424      1427      1428      1424      1427      1429
      1424      1427      1430      1425      1424      1426      1425      1424      1427
      1426      1424      1427      1427      1430      1431      1427      1430      1432
      1428      1427      1429      1428      1427      1430      1429      1427      1430
      1430      1432      1433      1430      1432      1434      1431      1430      1432
      1432      1434      1435      1432      1434      1436      1432      1434      1437
      1433      1432      1434      1434      1437      1438      1434      1437      1439
      1434      1437      1440      1435      1434      1436      1435      1434      1437
      1436      1434      1437      1437      1440      1441      1437      1440      1442
      1437      1440      1443      1438      1437      1439      1438      1437      1440
      1439      1437      1440      1440      1443      1444      1440      1443      1445
      1440      1443      1446      1441      1440      1442      1441      1440      1443
      1442      1440      1443      1443      1446      1447      1443      1446      1448
      1443      1446      1449      1444      1443      1445      1444      1443      1446
      1445      1443      1446      1446      1449      1450      1446      1449      1451
      1446      1449      1452      1447      1446      1448      1447      1446      1449
      1448      1446      1449      1449      1452      1453      1449      1452      1454
      1449      1452      1455      1450      1449      1451      1450      1449      1452
      1451      1449      1452      1452      1455      1456      1452      1455      1457
      1452      1455      1458      1453      1452      1454      1453      1452      1455
      1454      1452      1455      1456      1455      1457      1456      1455      1458
      1457      1455      1458      1459      1463      1464      1459      1463      1465
      1459      1463      1468      1460      1459      1461      1460      1459      1462
      1460      1459      1463      1461      1459      1462      1461      1459      1463
      1462      1459      1463      1463      1465      1466      1463      1465      1467
      1463      1468      1469      1463      1468      1470      1463      1468      1474
      1464      1463      1465      1464      1463      1468      1465      1463      1468
      1466      1465      1467      1468      1474      1471      1469      1468      1470
      1469      1468      1474      1470      1468      1474      1471      1475      1476
      1472      1471      1473      1472      1471      1474      1472      1471      1475
      1473      1471      1474      1473      1471      1475      1474      1471      1475
      1475      1476      1477      1475      1476      1478      1475      1476      1479
      1476      1479      1480      1476      1479      1481      1476      1479      1487
      1477      1476      1478      1477      1476      1479      1478      1476      1479
      1479      1481      1482      1479      1487      1488      1479      1487      1489
      1479      1487      1490      1480      1479      1481      1480      1479      1487
      1481      1479      1487      1481      1482      1483      1481      1482      1484
      1482      1484      1485      1482      1484      1486      1482      1484      1496
      1483      1482      1484      1484      1496      1497      1484      1496      1498
      1484      1496      1499      1485      1484      1486      1485      1484      1496
      1486      1484      1496      1487      1490      1491      1488      1487      1489
      1488      1487      1490      1489      1487      1490      1490      1491      1492
      1490      1491      1493      1491      1493      1494      1491      1493      1495
      1491      1493      1543      1492      1491      1493      1493      1543      1544
      1493      1543      1545      1493      1543      1546      1494      1493      1495
      1494      1493      1543      1495      1493      1543      1496      1499      1500
      1496      1499      1501      1496      1499      1502      1497      1496      1498
      1497      1496      1499      1498      1496      1499      1499      1502      1503
      1499      1502      1504      1500      1499      1501      1500      1499      1502
      1501      1499      1502      1502      1504      1505      1502      1504      1506
      1503      1502      1504      1504      1506      1507      1504      1506      1508
      1504      1506      1509      1505      1504      1506      1506      1509      1510
      1506      1509      1511      1507      1506      1508      1507      1506      1509
      1508      1506      1509      1509      1511      1512      1509      1511      1513
      1510      1509      1511      1511      1513      1514      1511      1513      1515
      1511      1513      1516      1512      1511      1513      1513      1516      1517
      1513      1516      1518      1514      1513      1515      1514      1513      1516
      1515      1513      1516      1516      1518      1519      1516      1518      1520
      1517      1516      1518      1518      1520      1521      1518      1520      1522
      1518      1520      1523      1519      1518      1520      1520      1523      1524
      1520      1523      1525      1521      1520      1522      1521      1520      1523
      1522      1520      1523      1523      1525      1526      1523      1525      1527
      1524      1523      1525      1525      1527      1528      1525      1527      1529
      1525      1527      1530      1526      1525      1527      1527      1530      1531
      1527      1530      1532      1527      1530      1533      1528      1527      1529
      1528      1527      1530      1529      1527      1530      1530      1533      1534
      1530      1533      1535      1530      1533      1536      1531      1530      1532
      1531      1530      1533      1532      1530      1533      1533      1536      1537
      1533      1536      1538      1533      1536      1539      1534      1533      1535
      1534      1533      1536      1535      1533      1536      1536      1539      1540
      1536      1539      1541      1536      1539      1542      1537      1536      1538
      1537      1536      1539      1538      1536      1539      1540      1539      1541
      1540      1539      1542      1541      1539      1542      1543      1546      1547
      1543      1546      1548      1543      1546      1549      1544      1543      1545
      1544      1543      1546      1545      1543      1546      1546      1549      1550
      1546      1549      1551      1546      1549      1552      1547      1546      1548
      1547      1546      1549      1548      1546      1549      1549      1552      1553
      1549      1552      1554      1549      1552      1555      1550      1549      1551
      1550      1549      1552      1551      1549      1552      1552      1555      1556
      1552      1555      1557      1552      1555      1558      1553      1552      1554
      1553      1552      1555      1554      1552      1555      1555      1558      1559
      1555      1558      1560      1555      1558      1561      1556      1555      1557
      1556      1555      1558      1557      1555      1558      1558      1561      1562
      1558      1561      1563      1558      1561      1564      1559      1558      1560
      1559      1558      1561      1560      1558      1561      1561      1564      1565
      1561      1564      1566      1561      1564      1567      1562      1561      1563
      1562      1561      1564      1563      1561      1564      1564      1567      1568
      1564      1567      1569      1564      1567      1570      1565      1564      1566
      1565      1564      1567      1566      1564      1567      1567      1570      1571
      1567      1570      1572      1567      1570      1573      1568      1567      1569
      1568      1567      1570      1569      1567      1570      1570      1573      1574
      1570      1573      1575      1570      1573      1576      1571      1570      1572
      1571      1570      1573      1572      1570      1573      1573      1576      1577
      1573      1576      1578      1573      1576      1579      1574      1573      1575
      1574      1573      1576      1575      1573      1576      1576      1579      1580
      1576      1579      1581      1576      1579      1582      1577      1576      1578
      1577      1576      1579      1578      1576      1579      1579      1582      1583
      1579      1582      1584      1579      1582      1585      1580      1579      1581
      1580      1579      1582      1581      1579      1582      1582      1585      1586
      1582      1585      1587      1582      1585      1588      1583      1582      1584
      1583      1582      1585      1584      1582      1585      1585      1588      1589
      1585      1588      1590      1585      1588      1591      1586      1585      1587
      1586      1585      1588      1587      1585      1588      1589      1588      1590
      1589      1588      1591      1590      1588      1591      1592      1593      1594
      1592      1593      1595      1592      1593      1596      1592      1597      1598
      1592      1597      1599      1592      1597      1600      1592      1601      1602
      1592      1601      1603      1592      1601      1604      1592      1605      1606
      1592      1605      1607      1592      1605      1608      1593      1592      1597
      1593      1592      1601      1593      1592      1605      1594      1593      1595
      1594      1593      1596      1595      1593      1596      1597      1592      1601
      1597      1592      1605      1598      1597      1599      1598      1597      1600
      1599      1597      1600      1601      1592      1605      1602      1601      1603
      1602      1601      1604      1603      1601      1604      1605      1608      1609
      1605      1608      1610      1605      1608      1615      1606      1605      1607
      1606      1605      1608      1607      1605      1608      1608      1615      1611
      1609      1608      1610      1609      1608      1615      1610      1608      1615
      1611      1614      1616      1612      1611      1613      1612      1611      1614
      1612      1611      1615      1613      1611      1614      1613      1611      1615
      1614      1611      1615      1614      1616      1617      1614      1616      1618
      1614      1616      1621      1616      1621      1619      1616      1621      1622
      1616      1621      1623      1617      1616      1618      1617      1616      1621
      1618      1616      1621      1619      1621      1622      1619      1621      1623
      1619      1671      1672      1619      1671      1673      1620      1619      1621
      1620      1619      1671      1621      1619      1671      1621      1623      1624
      1621      1623      1625      1621      1623      1627      1622      1621      1623
      1623      1625      1626      1623      1627      1628      1623      1627      1629
      1624      1623      1625      1624      1623      1627      1625      1623      1627
      1627      1629      1630      1627      1629      1631      1628      1627      1629
      1629      1631      1632      1629      1631      1633      1629      1631      1634
      1630      1629      1631      1631      1634      1635      1631      1634      1636
      1631      1634      1637      1632      1631      1633      1632      1631      1634
      1633      1631      1634      1634      1637      1638      1634      1637      1639
      1634      1637      1640      1635      1634      1636      1635      1634      1637
      1636      1634      1637      1637      1640      1641      1637      1640      1642
      1637      1640      1643      1638      1637      1639      1638      1637      1640
      1639      1637      1640      1640      1643      1644      1640      1643      1645
      1640      1643      1646      1641      1640      1642      1641      1640      1643
      1642      1640      1643      1643      1646      1647      1643      1646      1648
      1643      1646      1649      1644      1643      1645      1644      1643      1646
      1645      1643      1646      1646      1649      1650      1646      1649      1651
      1646      1649      1652      1647      1646      1648      1647      1646      1649
      1648      1646      1649      1649      1652      1653      1649      1652      1654
      1649      1652      1655      1650      1649      1651      1650      1649      1652
      1651      1649      1652      1652      1655      1656      1652      1655      1657
      1652      1655      1658      1653      1652      1654      1653      1652      1655
      1654      1652      1655      1655      1658      1659      1655      1658      1660
      1655      1658      1661      1656      1655      1657      1656      1655      1658
      1657      1655      1658      1658      1661      1662      1658      1661      1663
      1658      1661      1664      1659      1658      1660      1659      1658      1661
      1660      1658      1661      1661      1664      1665      1661      1664      1666
      1661      1664      1667      1662      1661      1663      1662      1661      1664
      1663      1661      1664      1664      1667      1668      1664      1667      1669
      1664      1667      1670      1665      1664      1666      1665      1664      1667
      1666      1664      1667      1668      1667      1669      1668      1667      1670
      1669      1667      1670      1671      1673      1674      1671      1673      1675
      1671      1673      1676      1672      1671      1673      1673      1676      1677
      1673      1676      1678      1673      1676      1679      1674      1673      1675
      1674      1673      1676      1675      1673      1676      1676      1679      1680
      1676      1679      1681      1676      1679      1682      1677      1676      1678
      1677      1676      1679      1678      1676      1679      1679      1682      1683
      1679      1682      1684      1679      1682      1685      1680      1679      1681
      1680      1679      1682      1681      1679      1682      1682      1685      1686
      1682      1685      1687      1682      1685      1688      1683      1682      1684
      1683      1682      1685      1684      1682      1685      1685      1688      1689
      1685      1688      1690      1685      1688      1691      1686      1685      1687
      1686      1685      1688      1687      1685      1688      1688      1691      1692
      1688      1691      1693      1688      1691      1694      1689      1688      1690
      1689      1688      1691      1690      1688      1691      1691      1694      1695
      1691      1694      1696      1692      1691      1693      1692      1691      1694
      1693      1691      1694      1694      1696      1697      1694      1696      1698
      1695      1694      1696      1696      1698      1699      1696      1698      1700
      1696      1698      1701      1697      1696      1698      1698      1701      1702
      1698      1701      1703      1698      1701      1704      1699      1698      1700
      1699      1698      1701      1700      1698      1701      1701      1704      1705
      1701      1704      1706      1701      1704      1707      1702      1701      1703
      1702      1701      1704      1703      1701      1704      1704      1707      1708
      1704      1707      1709      1704      1707      1710      1705      1704      1706
      1705      1704      1707      1706      1704      1707      1707      1710      1711
      1707      1710      1712      1707      1710      1713      1708      1707      1709
      1708      1707      1710      1709      1707      1710      1710      1713      1714
      1710      1713      1715      1710      1713      1716      1711      1710      1712
      1711      1710      1713      1712      1710      1713      1713      1716      1717
      1713      1716      1718      1713      1716      1719      1714      1713      1715
      1714      1713      1716      1715      1713      1716      1716      1719      1720
      1716      1719      1721      1716      1719      1722      1717      1716      1718
      1717      1716      1719      1718      1716      1719      1720      1719      1721
      1720      1719      1722      1721      1719      1722      1723      1725      1726
      1723      1727      1728      1723      1727      1729      1723      1727      1730
      1723      1769      1766      1723      1769      1770      1723      1769      1771
      1724      1723      1725      1724      1723      1727      1724      1723      1769
      1725      1723      1727      1725      1723      1769      1727      1723      1769
      1727      1730      1731      1727      1730      1761      1728      1727      1729
      1728      1727      1730      1729      1727      1730      1730      1731      1732
      1730      1731      1733      1730      1761      1759      1730      1761      1762
      1730      1761      1766      1731      1730      1761      1731      1733      1734
      1731      1733      1735      1731      1733      1736      1732      1731      1733
      1733      1736      1737      1733      1736      1738      1733      1736      1759
      1734      1733      1735      1734      1733      1736      1735      1733      1736
      1736      1738      1739      1736      1738      1740      1736      1738      1748
      1736      1759      1756      1736      1759      1760      1736      1759      1761
      1737      1736      1738      1737      1736      1759      1738      1736      1759
      1738      1740      1741      1738      1740      1742      1738      1740      1743
      1738      1748      1746      1738      1748      1749      1738      1748      1753
      1739      1738      1740      1739      1738      1748      1740      1738      1748
      1740      1743      1744      1740      1743      1745      1740      1743      1746
      1741      1740      1742      1741      1740      1743      1742      1740      1743
      1743      1746      1747      1743      1746      1748      1743      1746      1772
      1744      1743      1745      1744      1743      1746      1745      1743      1746
      1746      1748      1749      1746      1748      1753      1746      1772      1773
      1746      1772      1774      1746      1772      1778      1747      1746      1748
      1747      1746      1772      1748      1746      1772      1748      1749      1750
      1748      1749      1751      1748      1749      1752      1748      1753      1754
      1748      1753      1755      1748      1753      1756      1749      1748      1753
      1750      1749      1751      1750      1749      1752      1751      1749      1752
      1753      1756      1757      1753      1756      1758      1753      1756      1759
      1754      1753      1755      1754      1753      1756      1755      1753      1756
      1756      1759      1760      1756      1759      1761      1757      1756      1758
      1757      1756      1759      1758      1756      1759      1759      1761      1762
      1759      1761      1766      1760      1759      1761      1761      1762      1763
      1761      1762      1764      1761      1762      1765      1761      1766      1767
      1761      1766      1768      1761      1766      1769      1762      1761      1766
      1763      1762      1764      1763      1762      1765      1764      1762      1765
      1766      1769      1770      1766      1769      1771      1767      1766      1768
      1767      1766      1769      1768      1766      1769      1770      1769      1771
      1772      1774      1775      1772      1774      1776      1772      1774      1777
      1772      1778      1779      1772      1778      1780      1772      1778      1781
      1773      1772      1774      1773      1772      1778      1774      1772      1778
      1775      1774      1776      1775      1774      1777      1776      1774      1777
      1778      1781      1782      1778      1781      1783      1778      1781      1784
      1779      1778      1780      1779      1778      1781      1780      1778      1781
      1781      1784      1785      1781      1784      1786      1781      1784      1787
      1782      1781      1783      1782      1781      1784      1783      1781      1784
      1784      1787      1788      1784      1787      1789      1784      1787      1793
      1785      1784      1786      1785      1784      1787      1786      1784      1787
      1787      1789      1790      1787      1789      1791      1787      1789      1792
      1787      1793      1794      1787      1793      1795      1787      1793      1796
      1788      1787      1789      1788      1787      1793      1789      1787      1793
      1790      1789      1791      1790      1789      1792      1791      1789      1792
      1794      1793      1795      1794      1793      1796      1795      1793      1796
      1797      1799      1800      1797      1801      1802      1797      1801      1803
      1797      1801      1804      1797      1843      1840      1797      1843      1844
      1797      1843      1845      1798      1797      1799      1798      1797      1801
      1798      1797      1843      1799      1797      1801      1799      1797      1843
      1801      1797      1843      1801      1804      1805      1801      1804      1835
      1802      1801      1803      1802      1801      1804      1803      1801      1804
      1804      1805      1806      1804      1805      1807      1804      1835      1833
      1804      1835      1836      1804      1835      1840      1805      1804      1835
      1805      1807      1808      1805      1807      1809      1805      1807      1810
      1806      1805      1807      1807      1810      1811      1807      1810      1812
      1807      1810      1833      1808      1807      1809      1808      1807      1810
      1809      1807      1810      1810      1812      1813      1810      1812      1814
      1810      1812      1822      1810      1833      1830      1810      1833      1834
      1810      1833      1835      1811      1810      1812      1811      1810      1833
      1812      1810      1833      1812      1814      1815      1812      1814      1816
      1812      1814      1817      1812      1822      1820      1812      1822      1823
      1812      1822      1827      1813      1812      1814      1813      1812      1822
      1814      1812      1822      1814      1817      1818      1814      1817      1819
      1814      1817      1820      1815      1814      1816      1815      1814      1817
      1816      1814      1817      1817      1820      1821      1817      1820      1822
      1817      1820      1846      1818      1817      1819      1818      1817      1820
      1819      1817      1820      1820      1822      1823      1820      1822      1827
      1820      1846      1847      1820      1846      1848      1820      1846      1852
      1821      1820      1822      1821      1820      1846      1822      1820      1846
      1822      1823      1824      1822      1823      1825      1822      1823      1826
      1822      1827      1828      1822      1827      1829      1822      1827      1830
      1823      1822      1827      1824      1823      1825      1824      1823      1826
      1825      1823      1826      1827      1830      1831      1827      1830      1832
      1827      1830      1833      1828      1827      1829      1828      1827      1830
      1829      1827      1830      1830      1833      1834      1830      1833      1835
      1831      1830      1832      1831      1830      1833      1832      1830      1833
      1833      1835      1836      1833      1835      1840      1834      1833      1835
      1835      1836      1837      1835      1836      1838      1835      1836      1839
      1835      1840      1841      1835      1840      1842      1835      1840      1843
      1836      1835      1840      1837      1836      1838      1837      1836      1839
      1838      1836      1839      1840      1843      1844      1840      1843      1845
      1841      1840      1842      1841      1840      1843      1842      1840      1843
      1844      1843      1845      1846      1848      1849      1846      1848      1850
      1846      1848      1851      1846      1852      1853      1846      1852      1854
      1846      1852      1855      1847      1846      1848      1847      1846      1852
      1848      1846      1852      1849      1848      1850      1849      1848      1851
      1850      1848      1851      1852      1855      1856      1852      1855      1857
      1852      1855      1858      1853      1852      1854      1853      1852      1855
      1854      1852      1855      1855      1858      1859      1855      1858      1860
      1855      1858      1861      1856      1855      1857      1856      1855      1858
      1857      1855      1858      1858      1861      1862      1858      1861      1863
      1858      1861      1867      1859      1858      1860      1859      1858      1861
      1860      1858      1861      1861      1863      1864      1861      1863      1865
      1861      1863      1866      1861      1867      1868      1861      1867      1869
      1861      1867      1870      1862      1861      1863      1862      1861      1867
      1863      1861      1867      1864      1863      1865      1864      1863      1866
      1865      1863      1866      1868      1867      1869      1868      1867      1870
      1869      1867      1870      1871      1872      1873      1871      1872      1874
      1871      1872      1887      1871      1875      1876      1871      1875      1877
      1871      1875      1878      1871      1879      1880      1871      1879      1881
      1871      1879      1882      1871      1883      1884      1871      1883      1885
      1871      1883      1886      1872      1871      1875      1872      1871      1879
      1872      1871      1883      1872      1887      1888      1872      1887      1889
      1872      1887      1893      1873      1872      1874      1873      1872      1887
      1874      1872      1887      1875      1871      1879      1875      1871      1883
      1876      1875      1877      1876      1875      1878      1877      1875      1878
      1879      1871      1883      1880      1879      1881      1880      1879      1882
      1881      1879      1882      1884      1883      1885      1884      1883      1886
      1885      1883      1886      1887      1893      1890      1888      1887      1889
      1888      1887      1893      1889      1887      1893      1890      1894      1895
      1891      1890      1892      1891      1890      1893      1891      1890      1894
      1892      1890      1893      1892      1890      1894      1893      1890      1894
      1894      1895      1896      1894      1895      1897      1894      1895      1898
      1895      1898      1899      1895      1898      1900      1895      1898      1906
      1896      1895      1897      1896      1895      1898      1897      1895      1898
      1898      1900      1901      1898      1906      1907      1898      1906      1908
      1898      1906      1909      1899      1898      1900      1899      1898      1906
      1900      1898      1906      1900      1901      1902      1900      1901      1903
      1901      1903      1904      1901      1903      1905      1901      1903      1915
      1902      1901      1903      1903      1915      1916      1903      1915      1917
      1903      1915      1918      1904      1903      1905      1904      1903      1915
      1905      1903      1915      1906      1909      1910      1907      1906      1908
      1907      1906      1909      1908      1906      1909      1909      1910      1911
      1909      1910      1912      1910      1912      1913      1910      1912      1914
      1910      1912      1962      1911      1910      1912      1912      1962      1963
      1912      1962      1964      1912      1962      1965      1913      1912      1914
      1913      1912      1962      1914      1912      1962      1915      1918      1919
      1915      1918      1920      1915      1918      1921      1916      1915      1917
      1916      1915      1918      1917      1915      1918      1918      1921      1922
      1918      1921      1923      1919      1918      1920      1919      1918      1921
      1920      1918      1921      1921      1923      1924      1921      1923      1925
      1922      1921      1923      1923      1925      1926      1923      1925      1927
      1923      1925      1928      1924      1923      1925      1925      1928      1929
      1925      1928      1930      1926      1925      1927      1926      1925      1928
      1927      1925      1928      1928      1930      1931      1928      1930      1932
      1929      1928      1930      1930      1932      1933      1930      1932      1934
      1930      1932      1935      1931      1930      1932      1932      1935      1936
      1932      1935      1937      1933      1932      1934      1933      1932      1935
      1934      1932      1935      1935      1937      1938      1935      1937      1939
      1936      1935      1937      1937      1939      1940      1937      1939      1941
      1937      1939      1942      1938      1937      1939      1939      1942      1943
      1939      1942      1944      1940      1939      1941      1940      1939      1942
      1941      1939      1942      1942      1944      1945      1942      1944      1946
      1943      1942      1944      1944      1946      1947      1944      1946      1948
      1944      1946      1949      1945      1944      1946      1946      1949      1950
      1946      1949      1951      1946      1949      1952      1947      1946      1948
      1947      1946      1949      1948      1946      1949      1949      1952      1953
      1949      1952      1954      1949      1952      1955      1950      1949      1951
      1950      1949      1952      1951      1949      1952      1952      1955      1956
      1952      1955      1957      1952      1955      1958      1953      1952      1954
      1953      1952      1955      1954      1952      1955      1955      1958      1959
      1955      1958      1960      1955      1958      1961      1956      1955      1957
      1956      1955      1958      1957      1955      1958      1959      1958      1960
      1959      1958      1961      1960      1958      1961      1962      1965      1966
      1962      1965      1967      1962      1965      1968      1963      1962      1964
      1963      1962      1965      1964      1962      1965      1965      1968      1969
      1965      1968      1970      1965      1968      1971      1966      1965      1967
      1966      1965      1968      1967      1965      1968      1968      1971      1972
      1968      1971      1973      1968      1971      1974      1969      1968      1970
      1969      1968      1971      1970      1968      1971      1971      1974      1975
      1971      1974      1976      1971      1974      1977      1972      1971      1973
      1972      1971      1974      1973      1971      1974      1974      1977      1978
      1974      1977      1979      1974      1977      1980      1975      1974      1976
      1975      1974      1977      1976      1974      1977      1977      1980      1981
      1977      1980      1982      1977      1980      1983      1978      1977      1979
      1978      1977      1980      1979      1977      1980      1980      1983      1984
      1980      1983      1985      1980      1983      1986      1981      1980      1982
      1981      1980      1983      1982      1980      1983      1983      1986      1987
      1983      1986      1988      1983      1986      1989      1984      1983      1985
      1984      1983      1986      1985      1983      1986      1986      1989      1990
      1986      1989      1991      1986      1989      1992      1987      1986      1988
      1987      1986      1989      1988      1986      1989      1989      1992      1993
      1989      1992      1994      1989      1992      1995      1990      1989      1991
      1990      1989      1992      1991      1989      1992      1992      1995      1996
      1992      1995      1997      1992      1995      1998      1993      1992      1994
      1993      1992      1995      1994      1992      1995      1995      1998      1999
      1995      1998      2000      1995      1998      2001      1996      1995      1997
      1996      1995      1998      1997      1995      1998      1998      2001      2002
      1998      2001      2003      1998      2001      2004      1999      1998      2000
      1999      1998      2001      2000      1998      2001      2001      2004      2005
      2001      2004      2006      2001      2004      2007      2002      2001      2003
      2002      2001      2004      2003      2001      2004      2004      2007      2008
      2004      2007      2009      2004      2007      2010      2005      2004      2006
      2005      2004      2007      2006      2004      2007      2008      2007      2009
      2008      2007      2010      2009      2007      2010      2011      2012      2013
      2011      2012      2014      2011      2012      2015      2011      2016      2017
      2011      2016      2018      2011      2016      2019      2011      2020      2021
      2011      2020      2022      2011      2020      2023      2011      2024      2025
      2011      2024      2026      2011      2024      2027      2012      2011      2016
      2012      2011      2020      2012      2011      2024      2013      2012      2014
      2013      2012      2015      2014      2012      2015      2016      2011      2020
      2016      2011      2024      2017      2016      2018      2017      2016      2019
      2018      2016      2019      2020      2011      2024      2021      2020      2022
      2021      2020      2023      2022      2020      2023      2024      2027      2028
      2024      2027      2029      2024      2027      2034      2025      2024      2026
      2025      2024      2027      2026      2024      2027      2027      2034      2030
      2028      2027      2029      2028      2027      2034      2029      2027      2034
      2030      2033      2035      2031      2030      2032      2031      2030      2033
      2031      2030      2034      2032      2030      2033      2032      2030      2034
      2033      2030      2034      2033      2035      2036      2033      2035      2037
      2033      2035      2040      2035      2040      2038      2035      2040      2041
      2035      2040      2042      2036      2035      2037      2036      2035      2040
      2037      2035      2040      2038      2040      2041      2038      2040      2042
      2038      2090      2091      2038      2090      2092      2039      2038      2040
      2039      2038      2090      2040      2038      2090      2040      2042      2043
      2040      2042      2044      2040      2042      2046      2041      2040      2042
      2042      2044      2045      2042      2046      2047      2042      2046      2048
      2043      2042      2044      2043      2042      2046      2044      2042      2046
      2046      2048      2049      2046      2048      2050      2047      2046      2048
      2048      2050      2051      2048      2050      2052      2048      2050      2053
      2049      2048      2050      2050      2053      2054      2050      2053      2055
      2050      2053      2056      2051      2050      2052      2051      2050      2053
      2052      2050      2053      2053      2056      2057      2053      2056      2058
      2053      2056      2059      2054      2053      2055      2054      2053      2056
      2055      2053      2056      2056      2059      2060      2056      2059      2061
      2056      2059      2062      2057      2056      2058      2057      2056      2059
      2058      2056      2059      2059      2062      2063      2059      2062      2064
      2059      2062      2065      2060      2059      2061      2060      2059      2062
      2061      2059      2062      2062      2065      2066      2062      2065      2067
      2062      2065      2068      2063      2062      2064      2063      2062      2065
      2064      2062      2065      2065      2068      2069      2065      2068      2070
      2065      2068      2071      2066      2065      2067      2066      2065      2068
      2067      2065      2068      2068      2071      2072      2068      2071      2073
      2068      2071      2074      2069      2068      2070      2069      2068      2071
      2070      2068      2071      2071      2074      2075      2071      2074      2076
      2071      2074      2077      2072      2071      2073      2072      2071      2074
      2073      2071      2074      2074      2077      2078      2074      2077      2079
      2074      2077      2080      2075      2074      2076      2075      2074      2077
      2076      2074      2077      2077      2080      2081      2077      2080      2082
      2077      2080      2083      2078      2077      2079      2078      2077      2080
      2079      2077      2080      2080      2083      2084      2080      2083      2085
      2080      2083      2086      2081      2080      2082      2081      2080      2083
      2082      2080      2083      2083      2086      2087      2083      2086      2088
      2083      2086      2089      2084      2083      2085      2084      2083      2086
      2085      2083      2086      2087      2086      2088      2087      2086      2089
      2088      2086      2089      2090      2092      2093      2090      2092      2094
      2090      2092      2095      2091      2090      2092      2092      2095      2096
      2092      2095      2097      2092      2095      2098      2093      2092      2094
      2093      2092      2095      2094      2092      2095      2095      2098      2099
      2095      2098      2100      2095      2098      2101      2096      2095      2097
      2096      2095      2098      2097      2095      2098      2098      2101      2102
      2098      2101      2103      2098      2101      2104      2099      2098      2100
      2099      2098      2101      2100      2098      2101      2101      2104      2105
      2101      2104      2106      2101      2104      2107      2102      2101      2103
      2102      2101      2104      2103      2101      2104      2104      2107      2108
      2104      2107      2109      2104      2107      2110      2105      2104      2106
      2105      2104      2107      2106      2104      2107      2107      2110      2111
      2107      2110      2112      2107      2110      2113      2108      2107      2109
      2108      2107      2110      2109      2107      2110      2110      2113      2114
      2110      2113      2115      2111      2110      2112      2111      2110      2113
      2112      2110      2113      2113      2115      2116      2113      2115      2117
      2114      2113      2115      2115      2117      2118      2115      2117      2119
      2115      2117      2120      2116      2115      2117      2117      2120      2121
      2117      2120      2122      2117      2120      2123      2118      2117      2119
      2118      2117      2120      2119      2117      2120      2120      2123      2124
      2120      2123      2125      2120      2123      2126      2121      2120      2122
      2121      2120      2123      2122      2120      2123      2123      2126      2127
      2123      2126      2128      2123      2126      2129      2124      2123      2125
      2124      2123      2126      2125      2123      2126      2126      2129      2130
      2126      2129      2131      2126      2129      2132      2127      2126      2128
      2127      2126      2129      2128      2126      2129      2129      2132      2133
      2129      2132      2134      2129      2132      2135      2130      2129      2131
      2130      2129      2132      2131      2129      2132      2132      2135      2136
      2132      2135      2137      2132      2135      2138      2133      2132      2134
      2133      2132      2135      2134      2132      2135      2135      2138      2139
      2135      2138      2140      2135      2138      2141      2136      2135      2137
      2136      2135      2138      2137      2135      2138      2139      2138      2140
      2139      2138      2141      2140      2138      2141      2142      2146      2147
      2142      2146      2148      2142      2146      2149      2143      2142      2144
      2143      2142      2145      2143      2142      2146      2144      2142      2145
      2144      2142      2146      2145      2142      2146      2146      2149      2150
      2146      2149      2151      2146      2149      2155      2147      2146      2148
      2147      2146      2149      2148      2146      2149      2149      2155      2152
      2150      2149      2151      2150      2149      2155      2151      2149      2155
      2152      2156      2157      2153      2152      2154      2153      2152      2155
      2153      2152      2156      2154      2152      2155      2154      2152      2156
      2155      2152      2156      2156      2157      2158      2156      2157      2159
      2156      2157      2160      2157      2160      2161      2157      2160      2162
      2157      2160      2168      2158      2157      2159      2158      2157      2160
      2159      2157      2160      2160      2162      2163      2160      2168      2169
      2160      2168      2170      2160      2168      2171      2161      2160      2162
      2161      2160      2168      2162      2160      2168      2162      2163      2164
      2162      2163      2165      2163      2165      2166      2163      2165      2167
      2163      2165      2177      2164      2163      2165      2165      2177      2178
      2165      2177      2179      2165      2177      2180      2166      2165      2167
      2166      2165      2177      2167      2165      2177      2168      2171      2172
      2169      2168      2170      2169      2168      2171      2170      2168      2171
      2171      2172      2173      2171      2172      2174      2172      2174      2175
      2172      2174      2176      2172      2174      2224      2173      2172      2174
      2174      2224      2225      2174      2224      2226      2174      2224      2227
      2175      2174      2176      2175      2174      2224      2176      2174      2224
      2177      2180      2181      2177      2180      2182      2177      2180      2183
      2178      2177      2179      2178      2177      2180      2179      2177      2180
      2180      2183      2184      2180      2183      2185      2181      2180      2182
      2181      2180      2183      2182      2180      2183      2183      2185      2186
      2183      2185      2187      2184      2183      2185      2185      2187      2188
      2185      2187      2189      2185      2187      2190      2186      2185      2187
      2187      2190      2191      2187      2190      2192      2188      2187      2189
      2188      2187      2190      2189      2187      2190      2190      2192      2193
      2190      2192      2194      2191      2190      2192      2192      2194      2195
      2192      2194      2196      2192      2194      2197      2193      2192      2194
      2194      2197      2198      2194      2197      2199      2195      2194      2196
      2195      2194      2197      2196      2194      2197      2197      2199      2200
      2197      2199      2201      2198      2197      2199      2199      2201      2202
      2199      2201      2203      2199      2201      2204      2200      2199      2201
      2201      2204      2205      2201      2204      2206      2202      2201      2203
      2202      2201      2204      2203      2201      2204      2204      2206      2207
      2204      2206      2208      2205      2204      2206      2206      2208      2209
      2206      2208      2210      2206      2208      2211      2207      2206      2208
      2208      2211      2212      2208      2211      2213      2208      2211      2214
      2209      2208      2210      2209      2208      2211      2210      2208      2211
      2211      2214      2215      2211      2214      2216      2211      2214      2217
      2212      2211      2213      2212      2211      2214      2213      2211      2214
      2214      2217      2218      2214      2217      2219      2214      2217      2220
      2215      2214      2216      2215      2214      2217      2216      2214      2217
      2217      2220      2221      2217      2220      2222      2217      2220      2223
      2218      2217      2219      2218      2217      2220      2219      2217      2220
      2221      2220      2222      2221      2220      2223      2222      2220      2223
      2224      2227      2228      2224      2227      2229      2224      2227      2230
      2225      2224      2226      2225      2224      2227      2226      2224      2227
      2227      2230      2231      2227      2230      2232      2227      2230      2233
      2228      2227      2229      2228      2227      2230      2229      2227      2230
      2230      2233      2234      2230      2233      2235      2230      2233      2236
      2231      2230      2232      2231      2230      2233      2232      2230      2233
      2233      2236      2237      2233      2236      2238      2233      2236      2239
      2234      2233      2235      2234      2233      2236      2235      2233      2236
      2236      2239      2240      2236      2239      2241      2236      2239      2242
      2237      2236      2238      2237      2236      2239      2238      2236      2239
      2239      2242      2243      2239      2242      2244      2239      2242      2245
      2240      2239      2241      2240      2239      2242      2241      2239      2242
      2242      2245      2246      2242      2245      2247      2242      2245      2248
      2243      2242      2244      2243      2242      2245      2244      2242      2245
      2245      2248      2249      2245      2248      2250      2245      2248      2251
      2246      2245      2247      2246      2245      2248      2247      2245      2248
      2248      2251      2252      2248      2251      2253      2248      2251      2254
      2249      2248      2250      2249      2248      2251      2250      2248      2251
      2251      2254      2255      2251      2254      2256      2251      2254      2257
      2252      2251      2253      2252      2251      2254      2253      2251      2254
      2254      2257      2258      2254      2257      2259      2254      2257      2260
      2255      2254      2256      2255      2254      2257      2256      2254      2257
      2257      2260      2261      2257      2260      2262      2257      2260      2263
      2258      2257      2259      2258      2257      2260      2259      2257      2260
      2260      2263      2264      2260      2263      2265      2260      2263      2266
      2261      2260      2262      2261      2260      2263      2262      2260      2263
      2263      2266      2267      2263      2266      2268      2263      2266      2269
      2264      2263      2265      2264      2263      2266      2265      2263      2266
      2266      2269      2270      2266      2269      2271      2266      2269      2272
      2267      2266      2268      2267      2266      2269      2268      2266      2269
      2270      2269      2271      2270      2269      2272      2271      2269      2272
      2273      2275      2276      2273      2277      2278      2273      2277      2279
      2273      2277      2280      2273      2319      2316      2273      2319      2320
      2273      2319      2321      2274      2273      2275      2274      2273      2277
      2274      2273      2319      2275      2273      2277      2275      2273      2319
      2277      2273      2319      2277      2280      2281      2277      2280      2311
      2278      2277      2279      2278      2277      2280      2279      2277      2280
      2280      2281      2282      2280      2281      2283      2280      2311      2309
      2280      2311      2312      2280      2311      2316      2281      2280      2311
      2281      2283      2284      2281      2283      2285      2281      2283      2286
      2282      2281      2283      2283      2286      2287      2283      2286      2288
      2283      2286      2309      2284      2283      2285      2284      2283      2286
      2285      2283      2286      2286      2288      2289      2286      2288      2290
      2286      2288      2298      2286      2309      2306      2286      2309      2310
      2286      2309      2311      2287      2286      2288      2287      2286      2309
      2288      2286      2309      2288      2290      2291      2288      2290      2292
      2288      2290      2293      2288      2298      2296      2288      2298      2299
      2288      2298      2303      2289      2288      2290      2289      2288      2298
      2290      2288      2298      2290      2293      2294      2290      2293      2295
      2290      2293      2296      2291      2290      2292      2291      2290      2293
      2292      2290      2293      2293      2296      2297      2293      2296      2298
      2293      2296      2322      2294      2293      2295      2294      2293      2296
      2295      2293      2296      2296      2298      2299      2296      2298      2303
      2296      2322      2323      2296      2322      2324      2296      2322      2328
      2297      2296      2298      2297      2296      2322      2298      2296      2322
      2298      2299      2300      2298      2299      2301      2298      2299      2302
      2298      2303      2304      2298      2303      2305      2298      2303      2306
      2299      2298      2303      2300      2299      2301      2300      2299      2302
      2301      2299      2302      2303      2306      2307      2303      2306      2308
      2303      2306      2309      2304      2303      2305      2304      2303      2306
      2305      2303      2306      2306      2309      2310      2306      2309      2311
      2307      2306      2308      2307      2306      2309      2308      2306      2309
      2309      2311      2312      2309      2311      2316      2310      2309      2311
      2311      2312      2313      2311      2312      2314      2311      2312      2315
      2311      2316      2317      2311      2316      2318      2311      2316      2319
      2312      2311      2316      2313      2312      2314      2313      2312      2315
      2314      2312      2315      2316      2319      2320      2316      2319      2321
      2317      2316      2318      2317      2316      2319      2318      2316      2319
      2320      2319      2321      2322      2324      2325      2322      2324      2326
      2322      2324      2327      2322      2328      2329      2322      2328      2330
      2322      2328      2331      2323      2322      2324      2323      2322      2328
      2324      2322      2328      2325      2324      2326      2325      2324      2327
      2326      2324      2327      2328      2331      2332      2328      2331      2333
      2328      2331      2334      2329      2328      2330      2329      2328      2331
      2330      2328      2331      2331      2334      2335      2331      2334      2336
      2331      2334      2337      2332      2331      2333      2332      2331      2334
      2333      2331      2334      2334      2337      2338      2334      2337      2339
      2334      2337      2343      2335      2334      2336      2335      2334      2337
      2336      2334      2337      2337      2339      2340      2337      2339      2341
      2337      2339      2342      2337      2343      2344      2337      2343      2345
      2337      2343      2346      2338      2337      2339      2338      2337      2343
      2339      2337      2343      2340      2339      2341      2340      2339      2342
      2341      2339      2342      2344      2343      2345      2344      2343      2346
      2345      2343      2346      2347      2349      2350      2347      2351      2352
      2347      2351      2353      2347      2351      2354      2347      2393      2390
      2347      2393      2394      2347      2393      2395      2348      2347      2349
      2348      2347      2351      2348      2347      2393      2349      2347      2351
      2349      2347      2393      2351      2347      2393      2351      2354      2355
      2351      2354      2385      2352      2351      2353      2352      2351      2354
      2353      2351      2354      2354      2355      2356      2354      2355      2357
      2354      2385      2383      2354      2385      2386      2354      2385      2390
      2355      2354      2385      2355      2357      2358      2355      2357      2359
      2355      2357      2360      2356      2355      2357      2357      2360      2361
      2357      2360      2362      2357      2360      2383      2358      2357      2359
      2358      2357      2360      2359      2357      2360      2360      2362      2363
      2360      2362      2364      2360      2362      2372      2360      2383      2380
      2360      2383      2384      2360      2383      2385      2361      2360      2362
      2361      2360      2383      2362      2360      2383      2362      2364      2365
      2362      2364      2366      2362      2364      2367      2362      2372      2370
      2362      2372      2373      2362      2372      2377      2363      2362      2364
      2363      2362      2372      2364      2362      2372      2364      2367      2368
      2364      2367      2369      2364      2367      2370      2365      2364      2366
      2365      2364      2367      2366      2364      2367      2367      2370      2371
      2367      2370      2372      2367      2370      2396      2368      2367      2369
      2368      2367      2370      2369      2367      2370      2370      2372      2373
      2370      2372      2377      2370      2396      2397      2370      2396      2398
      2370      2396      2402      2371      2370      2372      2371      2370      2396
      2372      2370      2396      2372      2373      2374      2372      2373      2375
      2372      2373      2376      2372      2377      2378      2372      2377      2379
      2372      2377      2380      2373      2372      2377      2374      2373      2375
      2374      2373      2376      2375      2373      2376      2377      2380      2381
      2377      2380      2382      2377      2380      2383      2378      2377      2379
      2378      2377      2380      2379      2377      2380      2380      2383      2384
      2380      2383      2385      2381      2380      2382      2381      2380      2383
      2382      2380      2383      2383      2385      2386      2383      2385      2390
      2384      2383      2385      2385      2386      2387      2385      2386      2388
      2385      2386      2389      2385      2390      2391      2385      2390      2392
      2385      2390      2393      2386      2385      2390      2387      2386      2388
      2387      2386      2389      2388      2386      2389      2390      2393      2394
      2390      2393      2395      2391      2390      2392      2391      2390      2393
      2392      2390      2393      2394      2393      2395      2396      2398      2399
      2396      2398      2400      2396      2398      2401      2396      2402      2403
      2396      2402      2404      2396      2402      2405      2397      2396      2398
      2397      2396      2402      2398      2396      2402      2399      2398      2400
      2399      2398      2401      2400      2398      2401      2402      2405      2406
      2402      2405      2407      2402      2405      2408      2403      2402      2404
      2403      2402      2405      2404      2402      2405      2405      2408      2409
      2405      2408      2410      2405      2408      2411      2406      2405      2407
      2406      2405      2408      2407      2405      2408      2408      2411      2412
      2408      2411      2413      2408      2411      2417      2409      2408      2410
      2409      2408      2411      2410      2408      2411      2411      2413      2414
      2411      2413      2415      2411      2413      2416      2411      2417      2418
      2411      2417      2419      2411      2417      2420      2412      2411      2413
      2412      2411      2417      2413      2411      2417      2414      2413      2415
      2414      2413      2416      2415      2413      2416      2418      2417      2419
      2418      2417      2420      2419      2417      2420      2421      2425      2426
      2421      2425      2427      2421      2425      2428      2422      2421      2423
      2422      2421      2424      2422      2421      2425      2423      2421      2424
      2423      2421      2425      2424      2421      2425      2425      2428      2429
      2425      2428      2430      2425      2428      2434      2426      2425      2427
      2426      2425      2428      2427      2425      2428      2428      2434      2431
      2429      2428      2430      2429      2428      2434      2430      2428      2434
      2431      2435      2436      2432      2431      2433      2432      2431      2434
      2432      2431      2435      2433      2431      2434      2433      2431      2435
      2434      2431      2435      2435      2436      2437      2435      2436      2438
      2435      2436      2439      2436      2439      2440      2436      2439      2441
      2436      2439      2447      2437      2436      2438      2437      2436      2439
      2438      2436      2439      2439      2441      2442      2439      2447      2448
      2439      2447      2449      2439      2447      2450      2440      2439      2441
      2440      2439      2447      2441      2439      2447      2441      2442      2443
      2441      2442      2444      2442      2444      2445      2442      2444      2446
      2442      2444      2456      2443      2442      2444      2444      2456      2457
      2444      2456      2458      2444      2456      2459      2445      2444      2446
      2445      2444      2456      2446      2444      2456      2447      2450      2451
      2448      2447      2449      2448      2447      2450      2449      2447      2450
      2450      2451      2452      2450      2451      2453      2451      2453      2454
      2451      2453      2455      2451      2453      2503      2452      2451      2453
      2453      2503      2504      2453      2503      2505      2453      2503      2506
      2454      2453      2455      2454      2453      2503      2455      2453      2503
      2456      2459      2460      2456      2459      2461      2456      2459      2462
      2457      2456      2458      2457      2456      2459      2458      2456      2459
      2459      2462      2463      2459      2462      2464      2460      2459      2461
      2460      2459      2462      2461      2459      2462      2462      2464      2465
      2462      2464      2466      2463      2462      2464      2464      2466      2467
      2464      2466      2468      2464      2466      2469      2465      2464      2466
      2466      2469      2470      2466      2469      2471      2467      2466      2468
      2467      2466      2469      2468      2466      2469      2469      2471      2472
      2469      2471      2473      2470      2469      2471      2471      2473      2474
      2471      2473      2475      2471      2473      2476      2472      2471      2473
      2473      2476      2477      2473      2476      2478      2474      2473      2475
      2474      2473      2476      2475      2473      2476      2476      2478      2479
      2476      2478      2480      2477      2476      2478      2478      2480      2481
      2478      2480      2482      2478      2480      2483      2479      2478      2480
      2480      2483      2484      2480      2483      2485      2481      2480      2482
      2481      2480      2483      2482      2480      2483      2483      2485      2486
      2483      2485      2487      2484      2483      2485      2485      2487      2488
      2485      2487      2489      2485      2487      2490      2486      2485      2487
      2487      2490      2491      2487      2490      2492      2487      2490      2493
      2488      2487      2489      2488      2487      2490      2489      2487      2490
      2490      2493      2494      2490      2493      2495      2490      2493      2496
      2491      2490      2492      2491      2490      2493      2492      2490      2493
      2493      2496      2497      2493      2496      2498      2493      2496      2499
      2494      2493      2495      2494      2493      2496      2495      2493      2496
      2496      2499      2500      2496      2499      2501      2496      2499      2502
      2497      2496      2498      2497      2496      2499      2498      2496      2499
      2500      2499      2501      2500      2499      2502      2501      2499      2502
      2503      2506      2507      2503      2506      2508      2503      2506      2509
      2504      2503      2505      2504      2503      2506      2505      2503      2506
      2506      2509      2510      2506      2509      2511      2506      2509      2512
      2507      2506      2508      2507      2506      2509      2508      2506      2509
      2509      2512      2513      2509      2512      2514      2509      2512      2515
      2510      2509      2511      2510      2509      2512      2511      2509      2512
      2512      2515      2516      2512      2515      2517      2512      2515      2518
      2513      2512      2514      2513      2512      2515      2514      2512      2515
      2515      2518      2519      2515      2518      2520      2515      2518      2521
      2516      2515      2517      2516      2515      2518      2517      2515      2518
      2518      2521      2522      2518      2521      2523      2518      2521      2524
      2519      2518      2520      2519      2518      2521      2520      2518      2521
      2521      2524      2525      2521      2524      2526      2521      2524      2527
      2522      2521      2523      2522      2521      2524      2523      2521      2524
      2524      2527      2528      2524      2527      2529      2524      2527      2530
      2525      2524      2526      2525      2524      2527      2526      2524      2527
      2527      2530      2531      2527      2530      2532      2527      2530      2533
      2528      2527      2529      2528      2527      2530      2529      2527      2530
      2530      2533      2534      2530      2533      2535      2530      2533      2536
      2531      2530      2532      2531      2530      2533      2532      2530      2533
      2533      2536      2537      2533      2536      2538      2533      2536      2539
      2534      2533      2535      2534      2533      2536      2535      2533      2536
      2536      2539      2540      2536      2539      2541      2536      2539      2542
      2537      2536      2538      2537      2536      2539      2538      2536      2539
      2539      2542      2543      2539      2542      2544      2539      2542      2545
      2540      2539      2541      2540      2539      2542      2541      2539      2542
      2542      2545      2546      2542      2545      2547      2542      2545      2548
      2543      2542      2544      2543      2542      2545      2544      2542      2545
      2545      2548      2549      2545      2548      2550      2545      2548      2551
      2546      2545      2547      2546      2545      2548      2547      2545      2548
      2549      2548      2550      2549      2548      2551      2550      2548      2551
      2552      2553      2554      2552      2553      2555      2552      2553      2568
      2552      2556      2557      2552      2556      2558      2552      2556      2559
      2552      2560      2561      2552      2560      2562      2552      2560      2563
      2552      2564      2565      2552      2564      2566      2552      2564      2567
      2553      2552      2556      2553      2552      2560      2553      2552      2564
      2553      2568      2569      2553      2568      2570      2553      2568      2574
      2554      2553      2555      2554      2553      2568      2555      2553      2568
      2556      2552      2560      2556      2552      2564      2557      2556      2558
      2557      2556      2559      2558      2556      2559      2560      2552      2564
      2561      2560      2562      2561      2560      2563      2562      2560      2563
      2565      2564      2566      2565      2564      2567      2566      2564      2567
      2568      2574      2571      2569      2568      2570      2569      2568      2574
      2570      2568      2574      2571      2575      2576      2572      2571      2573
      2572      2571      2574      2572      2571      2575      2573      2571      2574
      2573      2571      2575      2574      2571      2575      2575      2576      2577
      2575      2576      2578      2575      2576      2579      2576      2579      2580
      2576      2579      2581      2576      2579      2587      2577      2576      2578
      2577      2576      2579      2578      2576      2579      2579      2581      2582
      2579      2587      2588      2579      2587      2589      2579      2587      2590
      2580      2579      2581      2580      2579      2587      2581      2579      2587
      2581      2582      2583      2581      2582      2584      2582      2584      2585
      2582      2584      2586      2582      2584      2596      2583      2582      2584
      2584      2596      2597      2584      2596      2598      2584      2596      2599
      2585      2584      2586      2585      2584      2596      2586      2584      2596
      2587      2590      2591      2588      2587      2589      2588      2587      2590
      2589      2587      2590      2590      2591      2592      2590      2591      2593
      2591      2593      2594      2591      2593      2595      2591      2593      2643
      2592      2591      2593      2593      2643      2644      2593      2643      2645
      2593      2643      2646      2594      2593      2595      2594      2593      2643
      2595      2593      2643      2596      2599      2600      2596      2599      2601
      2596      2599      2602      2597      2596      2598      2597      2596      2599
      2598      2596      2599      2599      2602      2603      2599      2602      2604
      2599      2602      2605      2600      2599      2601      2600      2599      2602
      2601      2599      2602      2602      2605      2606      2602      2605      2607
      2602      2605      2608      2603      2602      2604      2603      2602      2605
      2604      2602      2605      2605      2608      2609      2605      2608      2610
      2605      2608      2611      2606      2605      2607      2606      2605      2608
      2607      2605      2608      2608      2611      2612      2608      2611      2613
      2608      2611      2614      2609      2608      2610      2609      2608      2611
      2610      2608      2611      2611      2614      2615      2611      2614      2616
      2612      2611      2613      2612      2611      2614      2613      2611      2614
      2614      2616      2617      2614      2616      2618      2615      2614      2616
      2616      2618      2619      2616      2618      2620      2616      2618      2621
      2617      2616      2618      2618      2621      2622      2618      2621      2623
      2618      2621      2624      2619      2618      2620      2619      2618      2621
      2620      2618      2621      2621      2624      2625      2621      2624      2626
      2621      2624      2627      2622      2621      2623      2622      2621      2624
      2623      2621      2624      2624      2627      2628      2624      2627      2629
      2624      2627      2630      2625      2624      2626      2625      2624      2627
      2626      2624      2627      2627      2630      2631      2627      2630      2632
      2627      2630      2633      2628      2627      2629      2628      2627      2630
      2629      2627      2630      2630      2633      2634      2630      2633      2635
      2630      2633      2636      2631      2630      2632      2631      2630      2633
      2632      2630      2633      2633      2636      2637      2633      2636      2638
      2633      2636      2639      2634      2633      2635      2634      2633      2636
      2635      2633      2636      2636      2639      2640      2636      2639      2641
      2636      2639      2642      2637      2636      2638      2637      2636      2639
      2638      2636      2639      2640      2639      2641      2640      2639      2642
      2641      2639      2642      2643      2646      2647      2643      2646      2648
      2643      2646      2649      2644      2643      2645      2644      2643      2646
      2645      2643      2646      2646      2649      2650      2646      2649      2651
      2646      2649      2652      2647      2646      2648      2647      2646      2649
      2648      2646      2649      2649      2652      2653      2649      2652      2654
      2649      2652      2655      2650      2649      2651      2650      2649      2652
      2651      2649      2652      2652      2655      2656      2652      2655      2657
      2652      2655      2658      2653      2652      2654      2653      2652      2655
      2654      2652      2655      2655      2658      2659      2655      2658      2660
      2655      2658      2661      2656      2655      2657      2656      2655      2658
      2657      2655      2658      2658      2661      2662      2658      2661      2663
      2658      2661      2664      2659      2658      2660      2659      2658      2661
      2660      2658      2661      2661      2664      2665      2661      2664      2666
      2661      2664      2667      2662      2661      2663      2662      2661      2664
      2663      2661      2664      2664      2667      2668      2664      2667      2669
      2664      2667      2670      2665      2664      2666      2665      2664      2667
      2666      2664      2667      2667      2670      2671      2667      2670      2672
      2667      2670      2673      2668      2667      2669      2668      2667      2670
      2669      2667      2670      2670      2673      2674      2670      2673      2675
      2670      2673      2676      2671      2670      2672      2671      2670      2673
      2672      2670      2673      2673      2676      2677      2673      2676      2678
      2673      2676      2679      2674      2673      2675      2674      2673      2676
      2675      2673      2676      2676      2679      2680      2676      2679      2681
      2676      2679      2682      2677      2676      2678      2677      2676      2679
      2678      2676      2679      2679      2682      2683      2679      2682      2684
      2679      2682      2685      2680      2679      2681      2680      2679      2682
      2681      2679      2682      2683      2682      2684      2683      2682      2685
      2684      2682      2685      2686      2690      2691      2686      2690      2692
      2686      2690      2695      2687      2686      2688      2687      2686      2689
      2687      2686      2690      2688      2686      2689      2688      2686      2690
      2689      2686      2690      2690      2692      2693      2690      2692      2694
      2690      2695      2696      2690      2695      2697      2690      2695      2701
      2691      2690      2692      2691      2690      2695      2692      2690      2695
      2693      2692      2694      2695      2701      2698      2696      2695      2697
      2696      2695      2701      2697      2695      2701      2698      2702      2703
      2699      2698      2700      2699      2698      2701      2699      2698      2702
      2700      2698      2701      2700      2698      2702      2701      2698      2702
      2702      2703      2704      2702      2703      2705      2702      2703      2706
      2703      2706      2707      2703      2706      2708      2703      2706      2714
      2704      2703      2705      2704      2703      2706      2705      2703      2706
      2706      2708      2709      2706      2714      2715      2706      2714      2716
      2706      2714      2717      2707      2706      2708      2707      2706      2714
      2708      2706      2714      2708      2709      2710      2708      2709      2711
      2709      2711      2712      2709      2711      2713      2709      2711      2723
      2710      2709      2711      2711      2723      2724      2711      2723      2725
      2711      2723      2726      2712      2711      2713      2712      2711      2723
      2713      2711      2723      2714      2717      2718      2715      2714      2716
      2715      2714      2717      2716      2714      2717      2717      2718      2719
      2717      2718      2720      2718      2720      2721      2718      2720      2722
      2718      2720      2770      2719      2718      2720      2720      2770      2771
      2720      2770      2772      2720      2770      2773      2721      2720      2722
      2721      2720      2770      2722      2720      2770      2723      2726      2727
      2723      2726      2728      2723      2726      2729      2724      2723      2725
      2724      2723      2726      2725      2723      2726      2726      2729      2730
      2726      2729      2731      2727      2726      2728      2727      2726      2729
      2728      2726      2729      2729      2731      2732      2729      2731      2733
      2730      2729      2731      2731      2733      2734      2731      2733      2735
      2731      2733      2736      2732      2731      2733      2733      2736      2737
      2733      2736      2738      2734      2733      2735      2734      2733      2736
      2735      2733      2736      2736      2738      2739      2736      2738      2740
      2737      2736      2738      2738      2740      2741      2738      2740      2742
      2738      2740      2743      2739      2738      2740      2740      2743      2744
      2740      2743      2745      2741      2740      2742      2741      2740      2743
      2742      2740      2743      2743      2745      2746      2743      2745      2747
      2744      2743      2745      2745      2747      2748      2745      2747      2749
      2745      2747      2750      2746      2745      2747      2747      2750      2751
      2747      2750      2752      2748      2747      2749      2748      2747      2750
      2749      2747      2750      2750      2752      2753      2750      2752      2754
      2751      2750      2752      2752      2754      2755      2752      2754      2756
      2752      2754      2757      2753      2752      2754      2754      2757      2758
      2754      2757      2759      2754      2757      2760      2755      2754      2756
      2755      2754      2757      2756      2754      2757      2757      2760      2761
      2757      2760      2762      2757      2760      2763      2758      2757      2759
      2758      2757      2760      2759      2757      2760      2760      2763      2764
      2760      2763      2765      2760      2763      2766      2761      2760      2762
      2761      2760      2763      2762      2760      2763      2763      2766      2767
      2763      2766      2768      2763      2766      2769      2764      2763      2765
      2764      2763      2766      2765      2763      2766      2767      2766      2768
      2767      2766      2769      2768      2766      2769      2770      2773      2774
      2770      2773      2775      2770      2773      2776      2771      2770      2772
      2771      2770      2773      2772      2770      2773      2773      2776      2777
      2773      2776      2778      2773      2776      2779      2774      2773      2775
      2774      2773      2776      2775      2773      2776      2776      2779      2780
      2776      2779      2781      2776      2779      2782      2777      2776      2778
      2777      2776      2779      2778      2776      2779      2779      2782      2783
      2779      2782      2784      2779      2782      2785      2780      2779      2781
      2780      2779      2782      2781      2779      2782      2782      2785      2786
      2782      2785      2787      2782      2785      2788      2783      2782      2784
      2783      2782      2785      2784      2782      2785      2785      2788      2789
      2785      2788      2790      2785      2788      2791      2786      2785      2787
      2786      2785      2788      2787      2785      2788      2788      2791      2792
      2788      2791      2793      2788      2791      2794      2789      2788      2790
      2789      2788      2791      2790      2788      2791      2791      2794      2795
      2791      2794      2796      2791      2794      2797      2792      2791      2793
      2792      2791      2794      2793      2791      2794      2794      2797      2798
      2794      2797      2799      2794      2797      2800      2795      2794      2796
      2795      2794      2797      2796      2794      2797      2797      2800      2801
      2797      2800      2802      2797      2800      2803      2798      2797      2799
      2798      2797      2800      2799      2797      2800      2800      2803      2804
      2800      2803      2805      2800      2803      2806      2801      2800      2802
      2801      2800      2803      2802      2800      2803      2803      2806      2807
      2803      2806      2808      2803      2806      2809      2804      2803      2805
      2804      2803      2806      2805      2803      2806      2806      2809      2810
      2806      2809      2811      2806      2809      2812      2807      2806      2808
      2807      2806      2809      2808      2806      2809      2809      2812      2813
      2809      2812      2814      2809      2812      2815      2810      2809      2811
      2810      2809      2812      2811      2809      2812      2812      2815      2816
      2812      2815      2817      2812      2815      2818      2813      2812      2814
      2813      2812      2815      2814      2812      2815      2816      2815      2817
      2816      2815      2818      2817      2815      2818      2819      2821      2822
      2819      2823      2824      2819      2823      2825      2819      2823      2826
      2819      2865      2862      2819      2865      2866      2819      2865      2867
      2820      2819      2821      2820      2819      2823      2820      2819      2865
      2821      2819      2823      2821      2819      2865      2823      2819      2865
      2823      2826      2827      2823      2826      2857      2824      2823      2825
      2824      2823      2826      2825      2823      2826      2826      2827      2828
      2826      2827      2829      2826      2857      2855      2826      2857      2858
      2826      2857      2862      2827      2826      2857      2827      2829      2830
      2827      2829      2831      2827      2829      2832      2828      2827      2829
      2829      2832      2833      2829      2832      2834      2829      2832      2855
      2830      2829      2831      2830      2829      2832      2831      2829      2832
      2832      2834      2835      2832      2834      2836      2832      2834      2844
      2832      2855      2852      2832      2855      2856      2832      2855      2857
      2833      2832      2834      2833      2832      2855      2834      2832      2855
      2834      2836      2837      2834      2836      2838      2834      2836      2839
      2834      2844      2842      2834      2844      2845      2834      2844      2849
      2835      2834      2836      2835      2834      2844      2836      2834      2844
      2836      2839      2840      2836      2839      2841      2836      2839      2842
      2837      2836      2838      2837      2836      2839      2838      2836      2839
      2839      2842      2843      2839      2842      2844      2839      2842      2868
      2840      2839      2841      2840      2839      2842      2841      2839      2842
      2842      2844      2845      2842      2844      2849      2842      2868      2869
      2842      2868      2870      2842      2868      2874      2843      2842      2844
      2843      2842      2868      2844      2842      2868      2844      2845      2846
      2844      2845      2847      2844      2845      2848      2844      2849      2850
      2844      2849      2851      2844      2849      2852      2845      2844      2849
      2846      2845      2847      2846      2845      2848      2847      2845      2848
      2849      2852      2853      2849      2852      2854      2849      2852      2855
      2850      2849      2851      2850      2849      2852      2851      2849      2852
      2852      2855      2856      2852      2855      2857      2853      2852      2854
      2853      2852      2855      2854      2852      2855      2855      2857      2858
      2855      2857      2862      2856      2855      2857      2857      2858      2859
      2857      2858      2860      2857      2858      2861      2857      2862      2863
      2857      2862      2864      2857      2862      2865      2858      2857      2862
      2859      2858      2860      2859      2858      2861      2860      2858      2861
      2862      2865      2866      2862      2865      2867      2863      2862      2864
      2863      2862      2865      2864      2862      2865      2866      2865      2867
      2868      2870      2871      2868      2870      2872      2868      2870      2873
      2868      2874      2875      2868      2874      2876      2868      2874      2877
      2869      2868      2870      2869      2868      2874      2870      2868      2874
      2871      2870      2872      2871      2870      2873      2872      2870      2873
      2874      2877      2878      2874      2877      2879      2874      2877      2880
      2875      2874      2876      2875      2874      2877      2876      2874      2877
      2877      2880      2881      2877      2880      2882      2877      2880      2883
      2878      2877      2879      2878      2877      2880      2879      2877      2880
      2880      2883      2884      2880      2883      2885      2880      2883      2889
      2881      2880      2882      2881      2880      2883      2882      2880      2883
      2883      2885      2886      2883      2885      2887      2883      2885      2888
      2883      2889      2890      2883      2889      2891      2883      2889      2892
      2884      2883      2885      2884      2883      2889      2885      2883      2889
      2886      2885      2887      2886      2885      2888      2887      2885      2888
      2890      2889      2891      2890      2889      2892      2891      2889      2892
      2893      2897      2898      2893      2897      2899      2893      2897      2900
      2894      2893      2895      2894      2893      2896      2894      2893      2897
      2895      2893      2896      2895      2893      2897      2896      2893      2897
      2897      2900      2901      2897      2900      2902      2897      2900      2906
      2898      2897      2899      2898      2897      2900      2899      2897      2900
      2900      2906      2903      2901      2900      2902      2901      2900      2906
      2902      2900      2906      2903      2907      2908      2904      2903      2905
      2904      2903      2906      2904      2903      2907      2905      2903      2906
      2905      2903      2907      2906      2903      2907      2907      2908      2909
      2907      2908      2910      2907      2908      2911      2908      2911      2912
      2908      2911      2913      2908      2911      2919      2909      2908      2910
      2909      2908      2911      2910      2908      2911      2911      2913      2914
      2911      2919      2920      2911      2919      2921      2911      2919      2922
      2912      2911      2913      2912      2911      2919      2913      2911      2919
      2913      2914      2915      2913      2914      2916      2914      2916      2917
      2914      2916      2918      2914      2916      2928      2915      2914      2916
      2916      2928      2929      2916      2928      2930      2916      2928      2931
      2917      2916      2918      2917      2916      2928      2918      2916      2928
      2919      2922      2923      2920      2919      2921      2920      2919      2922
      2921      2919      2922      2922      2923      2924      2922      2923      2925
      2923      2925      2926      2923      2925      2927      2923      2925      2975
      2924      2923      2925      2925      2975      2976      2925      2975      2977
      2925      2975      2978      2926      2925      2927      2926      2925      2975
      2927      2925      2975      2928      2931      2932      2928      2931      2933
      2928      2931      2934      2929      2928      2930      2929      2928      2931
      2930      2928      2931      2931      2934      2935      2931      2934      2936
      2932      2931      2933      2932      2931      2934      2933      2931      2934
      2934      2936      2937      2934      2936      2938      2935      2934      2936
      2936      2938      2939      2936      2938      2940      2936      2938      2941
      2937      2936      2938      2938      2941      2942      2938      2941      2943
      2939      2938      2940      2939      2938      2941      2940      2938      2941
      2941      2943      2944      2941      2943      2945      2942      2941      2943
      2943      2945      2946      2943      2945      2947      2943      2945      2948
      2944      2943      2945      2945      2948      2949      2945      2948      2950
      2946      2945      2947      2946      2945      2948      2947      2945      2948
      2948      2950      2951      2948      2950      2952      2949      2948      2950
      2950      2952      2953      2950      2952      2954      2950      2952      2955
      2951      2950      2952      2952      2955      2956      2952      2955      2957
      2953      2952      2954      2953      2952      2955      2954      2952      2955
      2955      2957      2958      2955      2957      2959      2956      2955      2957
      2957      2959      2960      2957      2959      2961      2957      2959      2962
      2958      2957      2959      2959      2962      2963      2959      2962      2964
      2959      2962      2965      2960      2959      2961      2960      2959      2962
      2961      2959      2962      2962      2965      2966      2962      2965      2967
      2962      2965      2968      2963      2962      2964      2963      2962      2965
      2964      2962      2965      2965      2968      2969      2965      2968      2970
      2965      2968      2971      2966      2965      2967      2966      2965      2968
      2967      2965      2968      2968      2971      2972      2968      2971      2973
      2968      2971      2974      2969      2968      2970      2969      2968      2971
      2970      2968      2971      2972      2971      2973      2972      2971      2974
      2973      2971      2974      2975      2978      2979      2975      2978      2980
      2975      2978      2981      2976      2975      2977      2976      2975      2978
      2977      2975      2978      2978      2981      2982      2978      2981      2983
      2978      2981      2984      2979      2978      2980      2979      2978      2981
      2980      2978      2981      2981      2984      2985      2981      2984      2986
      2981      2984      2987      2982      2981      2983      2982      2981      2984
      2983      2981      2984      2984      2987      2988      2984      2987      2989
      2984      2987      2990      2985      2984      2986      2985      2984      2987
      2986      2984      2987      2987      2990      2991      2987      2990      2992
      2987      2990      2993      2988      2987      2989      2988      2987      2990
      2989      2987      2990      2990      2993      2994      2990      2993      2995
      2990      2993      2996      2991      2990      2992      2991      2990      2993
      2992      2990      2993      2993      2996      2997      2993      2996      2998
      2993      2996      2999      2994      2993      2995      2994      2993      2996
      2995      2993      2996      2996      2999      3000      2996      2999      3001
      2996      2999      3002      2997      2996      2998      2997      2996      2999
      2998      2996      2999      2999      3002      3003      2999      3002      3004
      2999      3002      3005      3000      2999      3001      3000      2999      3002
      3001      2999      3002      3002      3005      3006      3002      3005      3007
      3002      3005      3008      3003      3002      3004      3003      3002      3005
      3004      3002      3005      3005      3008      3009      3005      3008      3010
      3005      3008      3011      3006      3005      3007      3006      3005      3008
      3007      3005      3008      3008      3011      3012      3008      3011      3013
      3008      3011      3014      3009      3008      3010      3009      3008      3011
      3010      3008      3011      3011      3014      3015      3011      3014      3016
      3011      3014      3017      3012      3011      3013      3012      3011      3014
      3013      3011      3014      3014      3017      3018      3014      3017      3019
      3014      3017      3020      3015      3014      3016      3015      3014      3017
      3016      3014      3017      3017      3020      3021      3017      3020      3022
      3017      3020      3023      3018      3017      3019      3018      3017      3020
      3019      3017      3020      3021      3020      3022      3021      3020      3023
      3022      3020      3023      3024      3025      3026      3024      3025      3027
      3024      3025      3040      3024      3028      3029      3024      3028      3030
      3024      3028      3031      3024      3032      3033      3024      3032      3034
      3024      3032      3035      3024      3036      3037      3024      3036      3038
      3024      3036      3039      3025      3024      3028      3025      3024      3032
      3025      3024      3036      3025      3040      3041      3025      3040      3042
      3025      3040      3046      3026      3025      3027      3026      3025      3040
      3027      3025      3040      3028      3024      3032      3028      3024      3036
      3029      3028      3030      3029      3028      3031      3030      3028      3031
      3032      3024      3036      3033      3032      3034      3033      3032      3035
      3034      3032      3035      3037      3036      3038      3037      3036      3039
      3038      3036      3039      3040      3046      3043      3041      3040      3042
      3041      3040      3046      3042      3040      3046      3043      3047      3048
      3044      3043      3045      3044      3043      3046      3044      3043      3047
      3045      3043      3046      3045      3043      3047      3046      3043      3047
      3047      3048      3049      3047      3048      3050      3047      3048      3051
      3048      3051      3052      3048      3051      3053      3048      3051      3059
      3049      3048      3050      3049      3048      3051      3050      3048      3051
      3051      3053      3054      3051      3059      3060      3051      3059      3061
      3051      3059      3062      3052      3051      3053      3052      3051      3059
      3053      3051      3059      3053      3054      3055      3053      3054      3056
      3054      3056      3057      3054      3056      3058      3054      3056      3068
      3055      3054      3056      3056      3068      3069      3056      3068      3070
      3056      3068      3071      3057      3056      3058      3057      3056      3068
      3058      3056      3068      3059      3062      3063      3060      3059      3061
      3060      3059      3062      3061      3059      3062      3062      3063      3064
      3062      3063      3065      3063      3065      3066      3063      3065      3067
      3063      3065      3115      3064      3063      3065      3065      3115      3116
      3065      3115      3117      3065      3115      3118      3066      3065      3067
      3066      3065      3115      3067      3065      3115      3068      3071      3072
      3068      3071      3073      3068      3071      3074      3069      3068      3070
      3069      3068      3071      3070      3068      3071      3071      3074      3075
      3071      3074      3076      3072      3071      3073      3072      3071      3074
      3073      3071      3074      3074      3076      3077      3074      3076      3078
      3075      3074      3076      3076      3078      3079      3076      3078      3080
      3076      3078      3081      3077      3076      3078      3078      3081      3082
      3078      3081      3083      3079      3078      3080      3079      3078      3081
      3080      3078      3081      3081      3083      3084      3081      3083      3085
      3082      3081      3083      3083      3085      3086      3083      3085      3087
      3083      3085      3088      3084      3083      3085      3085      3088      3089
      3085      3088      3090      3086      3085      3087      3086      3085      3088
      3087      3085      3088      3088      3090      3091      3088      3090      3092
      3089      3088      3090      3090      3092      3093      3090      3092      3094
      3090      3092      3095      3091      3090      3092      3092      3095      3096
      3092      3095      3097      3093      3092      3094      3093      3092      3095
      3094      3092      3095      3095      3097      3098      3095      3097      3099
      3096      3095      3097      3097      3099      3100      3097      3099      3101
      3097      3099      3102      3098      3097      3099      3099      3102      3103
      3099      3102      3104      3099      3102      3105      3100      3099      3101
      3100      3099      3102      3101      3099      3102      3102      3105      3106
      3102      3105      3107      3102      3105      3108      3103      3102      3104
      3103      3102      3105      3104      3102      3105      3105      3108      3109
      3105      3108      3110      3105      3108      3111      3106      3105      3107
      3106      3105      3108      3107      3105      3108      3108      3111      3112
      3108      3111      3113      3108      3111      3114      3109      3108      3110
      3109      3108      3111      3110      3108      3111      3112      3111      3113
      3112      3111      3114      3113      3111      3114      3115      3118      3119
      3115      3118      3120      3115      3118      3121      3116      3115      3117
      3116      3115      3118      3117      3115      3118      3118      3121      3122
      3118      3121      3123      3118      3121      3124      3119      3118      3120
      3119      3118      3121      3120      3118      3121      3121      3124      3125
      3121      3124      3126      3121      3124      3127      3122      3121      3123
      3122      3121      3124      3123      3121      3124      3124      3127      3128
      3124      3127      3129      3124      3127      3130      3125      3124      3126
      3125      3124      3127      3126      3124      3127      3127      3130      3131
      3127      3130      3132      3127      3130      3133      3128      3127      3129
      3128      3127      3130      3129      3127      3130      3130      3133      3134
      3130      3133      3135      3130      3133      3136      3131      3130      3132
      3131      3130      3133      3132      3130      3133      3133      3136      3137
      3133      3136      3138      3133      3136      3139      3134      3133      3135
      3134      3133      3136      3135      3133      3136      3136      3139      3140
      3136      3139      3141      3136      3139      3142      3137      3136      3138
      3137      3136      3139      3138      3136      3139      3139      3142      3143
      3139      3142      3144      3139      3142      3145      3140      3139      3141
      3140      3139      3142      3141      3139      3142      3142      3145      3146
      3142      3145      3147      3142      3145      3148      3143      3142      3144
      3143      3142      3145      3144      3142      3145      3145      3148      3149
      3145      3148      3150      3145      3148      3151      3146      3145      3147
      3146      3145      3148      3147      3145      3148      3148      3151      3152
      3148      3151      3153      3148      3151      3154      3149      3148      3150
      3149      3148      3151      3150      3148      3151      3151      3154      3155
      3151      3154      3156      3151      3154      3157      3152      3151      3153
      3152      3151      3154      3153      3151      3154      3154      3157      3158
      3154      3157      3159      3154      3157      3160      3155      3154      3156
      3155      3154      3157      3156      3154      3157      3157      3160      3161
      3157      3160      3162      3157      3160      3163      3158      3157      3159
      3158      3157      3160      3159      3157      3160      3161      3160      3162
      3161      3160      3163      3162      3160      3163      3164      3165      3166
      3164      3165      3167      3164      3165      3168      3164      3169      3170
      3164      3169      3171      3164      3169      3172      3164      3173      3174
      3164      3173      3175      3164      3173      3176      3164      3177      3178
      3164      3177      3179      3164      3177      3180      3165      3164      3169
      3165      3164      3173      3165      3164      3177      3166      3165      3167
      3166      3165      3168      3167      3165      3168      3169      3164      3173
      3169      3164      3177      3170      3169      3171      3170      3169      3172
      3171      3169      3172      3173      3164      3177      3174      3173      3175
      3174      3173      3176      3175      3173      3176      3177      3180      3181
      3177      3180      3182      3177      3180      3186      3178      3177      3179
      3178      3177      3180      3179      3177      3180      3180      3186      3183
      3181      3180      3182      3181      3180      3186      3182      3180      3186
      3183      3187      3188      3184      3183      3185      3184      3183      3186
      3184      3183      3187      3185      3183      3186      3185      3183      3187
      3186      3183      3187      3187      3188      3189      3187      3188      3190
      3187      3188      3191      3188      3191      3192      3188      3191      3193
      3188      3191      3199      3189      3188      3190      3189      3188      3191
      3190      3188      3191      3191      3193      3194      3191      3199      3200
      3191      3199      3201      3191      3199      3202      3192      3191      3193
      3192      3191      3199      3193      3191      3199      3193      3194      3195
      3193      3194      3196      3194      3196      3197      3194      3196      3198
      3194      3196      3208      3195      3194      3196      3196      3208      3209
      3196      3208      3210      3196      3208      3211      3197      3196      3198
      3197      3196      3208      3198      3196      3208      3199      3202      3203
      3200      3199      3201      3200      3199      3202      3201      3199      3202
      3202      3203      3204      3202      3203      3205      3203      3205      3206
      3203      3205      3207      3203      3205      3253      3204      3203      3205
      3205      3253      3254      3205      3253      3255      3205      3253      3256
      3206      3205      3207      3206      3205      3253      3207      3205      3253
      3208      3211      3212      3208      3211      3213      3208      3211      3214
      3209      3208      3210      3209      3208      3211      3210      3208      3211
      3211      3214      3215      3211      3214      3216      3211      3214      3217
      3212      3211      3213      3212      3211      3214      3213      3211      3214
      3214      3217      3218      3214      3217      3219      3214      3217      3220
      3215      3214      3216      3215      3214      3217      3216      3214      3217
      3217      3220      3221      3217      3220      3222      3217      3220      3223
      3218      3217      3219      3218      3217      3220      3219      3217      3220
      3220      3223      3224      3220      3223      3225      3220      3223      3226
      3221      3220      3222      3221      3220      3223      3222      3220      3223
      3223      3226      3227      3223      3226      3228      3224      3223      3225
      3224      3223      3226      3225      3223      3226      3226      3228      3229
      3226      3228      3230      3227      3226      3228      3228      3230      3231
      3228      3230      3232      3228      3230      3233      3229      3228      3230
      3230      3233      3234      3230      3233      3235      3231      3230      3232
      3231      3230      3233      3232      3230      3233      3233      3235      3236
      3233      3235      3237      3234      3233      3235      3235      3237      3238
      3235      3237      3239      3235      3237      3240      3236      3235      3237
      3237      3240      3241      3237      3240      3242      3237      3240      3243
      3238      3237      3239      3238      3237      3240      3239      3237      3240
      3240      3243      3244      3240      3243      3245      3240      3243      3246
      3241      3240      3242      3241      3240      3243      3242      3240      3243
      3243      3246      3247      3243      3246      3248      3243      3246      3249
      3244      3243      3245      3244      3243      3246      3245      3243      3246
      3246      3249      3250      3246      3249      3251      3246      3249      3252
      3247      3246      3248      3247      3246      3249      3248      3246      3249
      3250      3249      3251      3250      3249      3252      3251      3249      3252
      3253      3256      3257      3253      3256      3258      3253      3256      3259
      3254      3253      3255      3254      3253      3256      3255      3253      3256
      3256      3259      3260      3256      3259      3261      3256      3259      3262
      3257      3256      3258      3257      3256      3259      3258      3256      3259
      3259      3262      3263      3259      3262      3264      3259      3262      3265
      3260      3259      3261      3260      3259      3262      3261      3259      3262
      3262      3265      3266      3262      3265      3267      3262      3265      3268
      3263      3262      3264      3263      3262      3265      3264      3262      3265
      3265      3268      3269      3265      3268      3270      3265      3268      3271
      3266      3265      3267      3266      3265      3268      3267      3265      3268
      3268      3271      3272      3268      3271      3273      3268      3271      3274
      3269      3268      3270      3269      3268      3271      3270      3268      3271
      3271      3274      3275      3271      3274      3276      3271      3274      3277
      3272      3271      3273      3272      3271      3274      3273      3271      3274
      3274      3277      3278      3274      3277      3279      3274      3277      3280
      3275      3274      3276      3275      3274      3277      3276      3274      3277
      3277      3280      3281      3277      3280      3282      3277      3280      3283
      3278      3277      3279      3278      3277      3280      3279      3277      3280
      3280      3283      3284      3280      3283      3285      3280      3283      3286
      3281      3280      3282      3281      3280      3283      3282      3280      3283
      3283      3286      3287      3283      3286      3288      3283      3286      3289
      3284      3283      3285      3284      3283      3286      3285      3283      3286
      3286      3289      3290      3286      3289      3291      3286      3289      3292
      3287      3286      3288      3287      3286      3289      3288      3286      3289
      3289      3292      3293      3289      3292      3294      3289      3292      3295
      3290      3289      3291      3290      3289      3292      3291      3289      3292
      3292      3295      3296      3292      3295      3297      3292      3295      3298
      3293      3292      3294      3293      3292      3295      3294      3292      3295
      3295      3298      3299      3295      3298      3300      3295      3298      3301
      3296      3295      3297      3296      3295      3298      3297      3295      3298
      3299      3298      3300      3299      3298      3301      3300      3298      3301
      3302      3303      3304      3302      3303      3305      3302      3303      3306
      3302      3307      3308      3302      3307      3309      3302      3307      3310
      3302      3311      3312      3302      3311      3313      3302      3311      3314
      3302      3315      3316      3302      3315      3317      3302      3315      3318
      3303      3302      3307      3303      3302      3311      3303      3302      3315
      3304      3303      3305      3304      3303      3306      3305      3303      3306
      3307      3302      3311      3307      3302      3315      3308      3307      3309
      3308      3307      3310      3309      3307      3310      3311      3302      3315
      3312      3311      3313      3312      3311      3314      3313      3311      3314
      3315      3318      3319      3315      3318      3320      3315      3318      3325
      3316      3315      3317      3316      3315      3318      3317      3315      3318
      3318      3325      3321      3319      3318      3320      3319      3318      3325
      3320      3318      3325      3321      3324      3326      3322      3321      3323
      3322      3321      3324      3322      3321      3325      3323      3321      3324
      3323      3321      3325      3324      3321      3325      3324      3326      3327
      3324      3326      3328      3324      3326      3331      3326      3331      3329
      3326      3331      3332      3326      3331      3333      3327      3326      3328
      3327      3326      3331      3328      3326      3331      3329      3331      3332
      3329      3331      3333      3329      3381      3382      3329      3381      3383
      3330      3329      3331      3330      3329      3381      3331      3329      3381
      3331      3333      3334      3331      3333      3335      3331      3333      3337
      3332      3331      3333      3333      3335      3336      3333      3337      3338
      3333      3337      3339      3334      3333      3335      3334      3333      3337
      3335      3333      3337      3337      3339      3340      3337      3339      3341
      3338      3337      3339      3339      3341      3342      3339      3341      3343
      3339      3341      3344      3340      3339      3341      3341      3344      3345
      3341      3344      3346      3341      3344      3347      3342      3341      3343
      3342      3341      3344      3343      3341      3344      3344      3347      3348
      3344      3347      3349      3344      3347      3350      3345      3344      3346
      3345      3344      3347      3346      3344      3347      3347      3350      3351
      3347      3350      3352      3347      3350      3353      3348      3347      3349
      3348      3347      3350      3349      3347      3350      3350      3353      3354
      3350      3353      3355      3350      3353      3356      3351      3350      3352
      3351      3350      3353      3352      3350      3353      3353      3356      3357
      3353      3356      3358      3353      3356      3359      3354      3353      3355
      3354      3353      3356      3355      3353      3356      3356      3359      3360
      3356      3359      3361      3356      3359      3362      3357      3356      3358
      3357      3356      3359      3358      3356      3359      3359      3362      3363
      3359      3362      3364      3359      3362      3365      3360      3359      3361
      3360      3359      3362      3361      3359      3362      3362      3365      3366
      3362      3365      3367      3362      3365      3368      3363      3362      3364
      3363      3362      3365      3364      3362      3365      3365      3368      3369
      3365      3368      3370      3365      3368      3371      3366      3365      3367
      3366      3365      3368      3367      3365      3368      3368      3371      3372
      3368      3371      3373      3368      3371      3374      3369      3368      3370
      3369      3368      3371      3370      3368      3371      3371      3374      3375
      3371      3374      3376      3371      3374      3377      3372      3371      3373
      3372      3371      3374      3373      3371      3374      3374      3377      3378
      3374      3377      3379      3374      3377      3380      3375      3374      3376
      3375      3374      3377      3376      3374      3377      3378      3377      3379
      3378      3377      3380      3379      3377      3380      3381      3383      3384
      3381      3383      3385      3381      3383      3386      3382      3381      3383
      3383      3386      3387      3383      3386      3388      3383      3386      3389
      3384      3383      3385      3384      3383      3386      3385      3383      3386
      3386      3389      3390      3386      3389      3391      3386      3389      3392
      3387      3386      3388      3387      3386      3389      3388      3386      3389
      3389      3392      3393      3389      3392      3394      3389      3392      3395
      3390      3389      3391      3390      3389      3392      3391      3389      3392
      3392      3395      3396      3392      3395      3397      3392      3395      3398
      3393      3392      3394      3393      3392      3395      3394      3392      3395
      3395      3398      3399      3395      3398      3400      3395      3398      3401
      3396      3395      3397      3396      3395      3398      3397      3395      3398
      3398      3401      3402      3398      3401      3403      3398      3401      3404
      3399      3398      3400      3399      3398      3401      3400      3398      3401
      3401      3404      3405      3401      3404      3406      3402      3401      3403
      3402      3401      3404      3403      3401      3404      3404      3406      3407
      3404      3406      3408      3405      3404      3406      3406      3408      3409
      3406      3408      3410      3406      3408      3411      3407      3406      3408
      3408      3411      3412      3408      3411      3413      3408      3411      3414
      3409      3408      3410      3409      3408      3411      3410      3408      3411
      3411      3414      3415      3411      3414      3416      3411      3414      3417
      3412      3411      3413      3412      3411      3414      3413      3411      3414
      3414      3417      3418      3414      3417      3419      3414      3417      3420
      3415      3414      3416      3415      3414      3417      3416      3414      3417
      3417      3420      3421      3417      3420      3422      3417      3420      3423
      3418      3417      3419      3418      3417      3420      3419      3417      3420
      3420      3423      3424      3420      3423      3425      3420      3423      3426
      3421      3420      3422      3421      3420      3423      3422      3420      3423
      3423      3426      3427      3423      3426      3428      3423      3426      3429
      3424      3423      3425      3424      3423      3426      3425      3423      3426
      3426      3429      3430      3426      3429      3431      3426      3429      3432
      3427      3426      3428      3427      3426      3429      3428      3426      3429
      3430      3429      3431      3430      3429      3432      3431      3429      3432
      3433      3437      3438      3433      3437      3439      3433      3437      3440
      3434      3433      3435      3434      3433      3436      3434      3433      3437
      3435      3433      3436      3435      3433      3437      3436      3433      3437
      3437      3440      3441      3437      3440      3442      3437      3440      3446
      3438      3437      3439      3438      3437      3440      3439      3437      3440
      3440      3446      3443      3441      3440      3442      3441      3440      3446
      3442      3440      3446      3443      3447      3448      3444      3443      3445
      3444      3443      3446      3444      3443      3447      3445      3443      3446
      3445      3443      3447      3446      3443      3447      3447      3448      3449
      3447      3448      3450      3447      3448      3451      3448      3451      3452
      3448      3451      3453      3448      3451      3459      3449      3448      3450
      3449      3448      3451      3450      3448      3451      3451      3453      3454
      3451      3459      3460      3451      3459      3461      3451      3459      3462
      3452      3451      3453      3452      3451      3459      3453      3451      3459
      3453      3454      3455      3453      3454      3456      3454      3456      3457
      3454      3456      3458      3454      3456      3468      3455      3454      3456
      3456      3468      3469      3456      3468      3470      3456      3468      3471
      3457      3456      3458      3457      3456      3468      3458      3456      3468
      3459      3462      3463      3460      3459      3461      3460      3459      3462
      3461      3459      3462      3462      3463      3464      3462      3463      3465
      3463      3465      3466      3463      3465      3467      3463      3465      3515
      3464      3463      3465      3465      3515      3516      3465      3515      3517
      3465      3515      3518      3466      3465      3467      3466      3465      3515
      3467      3465      3515      3468      3471      3472      3468      3471      3473
      3468      3471      3474      3469      3468      3470      3469      3468      3471
      3470      3468      3471      3471      3474      3475      3471      3474      3476
      3472      3471      3473      3472      3471      3474      3473      3471      3474
      3474      3476      3477      3474      3476      3478      3475      3474      3476
      3476      3478      3479      3476      3478      3480      3476      3478      3481
      3477      3476      3478      3478      3481      3482      3478      3481      3483
      3479      3478      3480      3479      3478      3481      3480      3478      3481
      3481      3483      3484      3481      3483      3485      3482      3481      3483
      3483      3485      3486      3483      3485      3487      3483      3485      3488
      3484      3483      3485      3485      3488      3489      3485      3488      3490
      3486      3485      3487      3486      3485      3488      3487      3485      3488
      3488      3490      3491      3488      3490      3492      3489      3488      3490
      3490      3492      3493      3490      3492      3494      3490      3492      3495
      3491      3490      3492      3492      3495      3496      3492      3495      3497
      3493      3492      3494      3493      3492      3495      3494      3492      3495
      3495      3497      3498      3495      3497      3499      3496      3495      3497
      3497      3499      3500      3497      3499      3501      3497      3499      3502
      3498      3497      3499      3499      3502      3503      3499      3502      3504
      3499      3502      3505      3500      3499      3501      3500      3499      3502
      3501      3499      3502      3502      3505      3506      3502      3505      3507
      3502      3505      3508      3503      3502      3504      3503      3502      3505
      3504      3502      3505      3505      3508      3509      3505      3508      3510
      3505      3508      3511      3506      3505      3507      3506      3505      3508
      3507      3505      3508      3508      3511      3512      3508      3511      3513
      3508      3511      3514      3509      3508      3510      3509      3508      3511
      3510      3508      3511      3512      3511      3513      3512      3511      3514
      3513      3511      3514      3515      3518      3519      3515      3518      3520
      3515      3518      3521      3516      3515      3517      3516      3515      3518
      3517      3515      3518      3518      3521      3522      3518      3521      3523
      3518      3521      3524      3519      3518      3520      3519      3518      3521
      3520      3518      3521      3521      3524      3525      3521      3524      3526
      3521      3524      3527      3522      3521      3523      3522      3521      3524
      3523      3521      3524      3524      3527      3528      3524      3527      3529
      3524      3527      3530      3525      3524      3526      3525      3524      3527
      3526      3524      3527      3527      3530      3531      3527      3530      3532
      3527      3530      3533      3528      3527      3529      3528      3527      3530
      3529      3527      3530      3530      3533      3534      3530      3533      3535
      3530      3533      3536      3531      3530      3532      3531      3530      3533
      3532      3530      3533      3533      3536      3537      3533      3536      3538
      3533      3536      3539      3534      3533      3535      3534      3533      3536
      3535      3533      3536      3536      3539      3540      3536      3539      3541
      3536      3539      3542      3537      3536      3538      3537      3536      3539
      3538      3536      3539      3539      3542      3543      3539      3542      3544
      3539      3542      3545      3540      3539      3541      3540      3539      3542
      3541      3539      3542      3542      3545      3546      3542      3545      3547
      3542      3545      3548      3543      3542      3544      3543      3542      3545
      3544      3542      3545      3545      3548      3549      3545      3548      3550
      3545      3548      3551      3546      3545      3547      3546      3545      3548
      3547      3545      3548      3548      3551      3552      3548      3551      3553
      3548      3551      3554      3549      3548      3550      3549      3548      3551
      3550      3548      3551      3551      3554      3555      3551      3554      3556
      3551      3554      3557      3552      3551      3553      3552      3551      3554
      3553      3551      3554      3554      3557      3558      3554      3557      3559
      3554      3557      3560      3555      3554      3556      3555      3554      3557
      3556      3554      3557      3557      3560      3561      3557      3560      3562
      3557      3560      3563      3558      3557      3559      3558      3557      3560
      3559      3557      3560      3561      3560      3562      3561      3560      3563
      3562      3560      3563      3564      3565      3566      3564      3565      3567
      3564      3565      3568      3564      3569      3570      3564      3569      3571
      3564      3569      3572      3564      3573      3574      3564      3573      3575
      3564      3573      3576      3564      3577      3578      3564      3577      3579
      3564      3577      3580      3565      3564      3569      3565      3564      3573
      3565      3564      3577      3566      3565      3567      3566      3565      3568
      3567      3565      3568      3569      3564      3573      3569      3564      3577
      3570      3569      3571      3570      3569      3572      3571      3569      3572
      3573      3564      3577      3574      3573      3575      3574      3573      3576
      3575      3573      3576      3577      3580      3581      3577      3580      3582
      3577      3580      3587      3578      3577      3579      3578      3577      3580
      3579      3577      3580      3580      3587      3583      3581      3580      3582
      3581      3580      3587      3582      3580      3587      3583      3586      3588
      3584      3583      3585      3584      3583      3586      3584      3583      3587
      3585      3583      3586      3585      3583      3587      3586      3583      3587
      3586      3588      3589      3586      3588      3590      3586      3588      3593
      3588      3593      3591      3588      3593      3594      3588      3593      3595
      3589      3588      3590      3589      3588      3593      3590      3588      3593
      3591      3593      3594      3591      3593      3595      3591      3643      3644
      3591      3643      3645      3592      3591      3593      3592      3591      3643
      3593      3591      3643      3593      3595      3596      3593      3595      3597
      3593      3595      3599      3594      3593      3595      3595      3597      3598
      3595      3599      3600      3595      3599      3601      3596      3595      3597
      3596      3595      3599      3597      3595      3599      3599      3601      3602
      3599      3601      3603      3600      3599      3601      3601      3603      3604
      3601      3603      3605      3601      3603      3606      3602      3601      3603
      3603      3606      3607      3603      3606      3608      3603      3606      3609
      3604      3603      3605      3604      3603      3606      3605      3603      3606
      3606      3609      3610      3606      3609      3611      3606      3609      3612
      3607      3606      3608      3607      3606      3609      3608      3606      3609
      3609      3612      3613      3609      3612      3614      3609      3612      3615
      3610      3609      3611      3610      3609      3612      3611      3609      3612
      3612      3615      3616      3612      3615      3617      3612      3615      3618
      3613      3612      3614      3613      3612      3615      3614      3612      3615
      3615      3618      3619      3615      3618      3620      3615      3618      3621
      3616      3615      3617      3616      3615      3618      3617      3615      3618
      3618      3621      3622      3618      3621      3623      3618      3621      3624
      3619      3618      3620      3619      3618      3621      3620      3618      3621
      3621      3624      3625      3621      3624      3626      3621      3624      3627
      3622      3621      3623      3622      3621      3624      3623      3621      3624
      3624      3627      3628      3624      3627      3629      3624      3627      3630
      3625      3624      3626      3625      3624      3627      3626      3624      3627
      3627      3630      3631      3627      3630      3632      3627      3630      3633
      3628      3627      3629      3628      3627      3630      3629      3627      3630
      3630      3633      3634      3630      3633      3635      3630      3633      3636
      3631      3630      3632      3631      3630      3633      3632      3630      3633
      3633      3636      3637      3633      3636      3638      3633      3636      3639
      3634      3633      3635      3634      3633      3636      3635      3633      3636
      3636      3639      3640      3636      3639      3641      3636      3639      3642
      3637      3636      3638      3637      3636      3639      3638      3636      3639
      3640      3639      3641      3640      3639      3642      3641      3639      3642
      3643      3645      3646      3643      3645      3647      3643      3645      3648
      3644      3643      3645      3645      3648      3649      3645      3648      3650
      3645      3648      3651      3646      3645      3647      3646      3645      3648
      3647      3645      3648      3648      3651      3652      3648      3651      3653
      3648      3651      3654      3649      3648      3650      3649      3648      3651
      3650      3648      3651      3651      3654      3655      3651      3654      3656
      3651      3654      3657      3652      3651      3653      3652      3651      3654
      3653      3651      3654      3654      3657      3658      3654      3657      3659
      3654      3657      3660      3655      3654      3656      3655      3654      3657
      3656      3654      3657      3657      3660      3661      3657      3660      3662
      3657      3660      3663      3658      3657      3659      3658      3657      3660
      3659      3657      3660      3660      3663      3664      3660      3663      3665
      3660      3663      3666      3661      3660      3662      3661      3660      3663
      3662      3660      3663      3663      3666      3667      3663      3666      3668
      3664      3663      3665      3664      3663      3666      3665      3663      3666
      3666      3668      3669      3666      3668      3670      3667      3666      3668
      3668      3670      3671      3668      3670      3672      3668      3670      3673
      3669      3668      3670      3670      3673      3674      3670      3673      3675
      3670      3673      3676      3671      3670      3672      3671      3670      3673
      3672      3670      3673      3673      3676      3677      3673      3676      3678
      3673      3676      3679      3674      3673      3675      3674      3673      3676
      3675      3673      3676      3676      3679      3680      3676      3679      3681
      3676      3679      3682      3677      3676      3678      3677      3676      3679
      3678      3676      3679      3679      3682      3683      3679      3682      3684
      3679      3682      3685      3680      3679      3681      3680      3679      3682
      3681      3679      3682      3682      3685      3686      3682      3685      3687
      3682      3685      3688      3683      3682      3684      3683      3682      3685
      3684      3682      3685      3685      3688      3689      3685      3688      3690
      3685      3688      3691      3686      3685      3687      3686      3685      3688
      3687      3685      3688      3688      3691      3692      3688      3691      3693
      3688      3691      3694      3689      3688      3690      3689      3688      3691
      3690      3688      3691      3692      3691      3693      3692      3691      3694
      3693      3691      3694      3695      3696      3697      3695      3696      3698
      3695      3696      3699      3695      3700      3701      3695      3700      3702
      3695      3700      3703      3695      3704      3705      3695      3704      3706
      3695      3704      3707      3695      3708      3709      3695      3708      3710
      3695      3708      3711      3696      3695      3700      3696      3695      3704
      3696      3695      3708      3697      3696      3698      3697      3696      3699
      3698      3696      3699      3700      3695      3704      3700      3695      3708
      3701      3700      3702      3701      3700      3703      3702      3700      3703
      3704      3695      3708      3705      3704      3706      3705      3704      3707
      3706      3704      3707      3708      3711      3712      3708      3711      3713
      3708      3711      3718      3709      3708      3710      3709      3708      3711
      3710      3708      3711      3711      3718      3714      3712      3711      3713
      3712      3711      3718      3713      3711      3718      3714      3717      3719
      3715      3714      3716      3715      3714      3717      3715      3714      3718
      3716      3714      3717      3716      3714      3718      3717      3714      3718
      3717      3719      3720      3717      3719      3721      3717      3719      3724
      3719      3724      3722      3719      3724      3725      3719      3724      3726
      3720      3719      3721      3720      3719      3724      3721      3719      3724
      3722      3724      3725      3722      3724      3726      3722      3774      3775
      3722      3774      3776      3723      3722      3724      3723      3722      3774
      3724      3722      3774      3724      3726      3727      3724      3726      3728
      3724      3726      3730      3725      3724      3726      3726      3728      3729
      3726      3730      3731      3726      3730      3732      3727      3726      3728
      3727      3726      3730      3728      3726      3730      3730      3732      3733
      3730      3732      3734      3731      3730      3732      3732      3734      3735
      3732      3734      3736      3732      3734      3737      3733      3732      3734
      3734      3737      3738      3734      3737      3739      3734      3737      3740
      3735      3734      3736      3735      3734      3737      3736      3734      3737
      3737      3740      3741      3737      3740      3742      3737      3740      3743
      3738      3737      3739      3738      3737      3740      3739      3737      3740
      3740      3743      3744      3740      3743      3745      3740      3743      3746
      3741      3740      3742      3741      3740      3743      3742      3740      3743
      3743      3746      3747      3743      3746      3748      3743      3746      3749
      3744      3743      3745      3744      3743      3746      3745      3743      3746
      3746      3749      3750      3746      3749      3751      3746      3749      3752
      3747      3746      3748      3747      3746      3749      3748      3746      3749
      3749      3752      3753      3749      3752      3754      3749      3752      3755
      3750      3749      3751      3750      3749      3752      3751      3749      3752
      3752      3755      3756      3752      3755      3757      3752      3755      3758
      3753      3752      3754      3753      3752      3755      3754      3752      3755
      3755      3758      3759      3755      3758      3760      3755      3758      3761
      3756      3755      3757      3756      3755      3758      3757      3755      3758
      3758      3761      3762      3758      3761      3763      3758      3761      3764
      3759      3758      3760      3759      3758      3761      3760      3758      3761
      3761      3764      3765      3761      3764      3766      3761      3764      3767
      3762      3761      3763      3762      3761      3764      3763      3761      3764
      3764      3767      3768      3764      3767      3769      3764      3767      3770
      3765      3764      3766      3765      3764      3767      3766      3764      3767
      3767      3770      3771      3767      3770      3772      3767      3770      3773
      3768      3767      3769      3768      3767      3770      3769      3767      3770
      3771      3770      3772      3771      3770      3773      3772      3770      3773
      3774      3776      3777      3774      3776      3778      3774      3776      3779
      3775      3774      3776      3776      3779      3780      3776      3779      3781
      3776      3779      3782      3777      3776      3778      3777      3776      3779
      3778      3776      3779      3779      3782      3783      3779      3782      3784
      3779      3782      3785      3780      3779      3781      3780      3779      3782
      3781      3779      3782      3782      3785      3786      3782      3785      3787
      3782      3785      3788      3783      3782      3784      3783      3782      3785
      3784      3782      3785      3785      3788      3789      3785      3788      3790
      3785      3788      3791      3786      3785      3787      3786      3785      3788
      3787      3785      3788      3788      3791      3792      3788      3791      3793
      3788      3791      3794      3789      3788      3790      3789      3788      3791
      3790      3788      3791      3791      3794      3795      3791      3794      3796
      3791      3794      3797      3792      3791      3793      3792      3791      3794
      3793      3791      3794      3794      3797      3798      3794      3797      3799
      3795      3794      3796      3795      3794      3797      3796      3794      3797
      3797      3799      3800      3797      3799      3801      3798      3797      3799
      3799      3801      3802      3799      3801      3803      3799      3801      3804
      3800      3799      3801      3801      3804      3805      3801      3804      3806
      3801      3804      3807      3802      3801      3803      3802      3801      3804
      3803      3801      3804      3804      3807      3808      3804      3807      3809
      3804      3807      3810      3805      3804      3806      3805      3804      3807
      3806      3804      3807      3807      3810      3811      3807      3810      3812
      3807      3810      3813      3808      3807      3809      3808      3807      3810
      3809      3807      3810      3810      3813      3814      3810      3813      3815
      3810      3813      3816      3811      3810      3812      3811      3810      3813
      3812      3810      3813      3813      3816      3817      3813      3816      3818
      3813      3816      3819      3814      3813      3815      3814      3813      3816
      3815      3813      3816      3816      3819      3820      3816      3819      3821
      3816      3819      3822      3817      3816      3818      3817      3816      3819
      3818      3816      3819      3819      3822      3823      3819      3822      3824
      3819      3822      3825      3820      3819      3821      3820      3819      3822
      3821      3819      3822      3823      3822      3824      3823      3822      3825
      3824      3822      3825      3826      3827      3828      3826      3827      3829
      3826      3827      3830      3826      3831      3832      3826      3831      3833
      3826      3831      3834      3826      3835      3836      3826      3835      3837
      3826      3835      3838      3826      3839      3840      3826      3839      3841
      3826      3839      3842      3827      3826      3831      3827      3826      3835
      3827      3826      3839      3828      3827      3829      3828      3827      3830
      3829      3827      3830      3831      3826      3835      3831      3826      3839
      3832      3831      3833      3832      3831      3834      3833      3831      3834
      3835      3826      3839      3836      3835      3837      3836      3835      3838
      3837      3835      3838      3839      3842      3843      3839      3842      3844
      3839      3842      3849      3840      3839      3841      3840      3839      3842
      3841      3839      3842      3842      3849      3845      3843      3842      3844
      3843      3842      3849      3844      3842      3849      3845      3848      3850
      3846      3845      3847      3846      3845      3848      3846      3845      3849
      3847      3845      3848      3847      3845      3849      3848      3845      3849
      3848      3850      3851      3848      3850      3852      3848      3850      3855
      3850      3855      3853      3850      3855      3856      3850      3855      3857
      3851      3850      3852      3851      3850      3855      3852      3850      3855
      3853      3855      3856      3853      3855      3857      3853      3905      3906
      3853      3905      3907      3854      3853      3855      3854      3853      3905
      3855      3853      3905      3855      3857      3858      3855      3857      3859
      3855      3857      3861      3856      3855      3857      3857      3859      3860
      3857      3861      3862      3857      3861      3863      3858      3857      3859
      3858      3857      3861      3859      3857      3861      3861      3863      3864
      3861      3863      3865      3862      3861      3863      3863      3865      3866
      3863      3865      3867      3863      3865      3868      3864      3863      3865
      3865      3868      3869      3865      3868      3870      3865      3868      3871
      3866      3865      3867      3866      3865      3868      3867      3865      3868
      3868      3871      3872      3868      3871      3873      3868      3871      3874
      3869      3868      3870      3869      3868      3871      3870      3868      3871
      3871      3874      3875      3871      3874      3876      3871      3874      3877
      3872      3871      3873      3872      3871      3874      3873      3871      3874
      3874      3877      3878      3874      3877      3879      3874      3877      3880
      3875      3874      3876      3875      3874      3877      3876      3874      3877
      3877      3880      3881      3877      3880      3882      3877      3880      3883
      3878      3877      3879      3878      3877      3880      3879      3877      3880
      3880      3883      3884      3880      3883      3885      3880      3883      3886
      3881      3880      3882      3881      3880      3883      3882      3880      3883
      3883      3886      3887      3883      3886      3888      3883      3886      3889
      3884      3883      3885      3884      3883      3886      3885      3883      3886
      3886      3889      3890      3886      3889      3891      3886      3889      3892
      3887      3886      3888      3887      3886      3889      3888      3886      3889
      3889      3892      3893      3889      3892      3894      3889      3892      3895
      3890      3889      3891      3890      3889      3892      3891      3889      3892
      3892      3895      3896      3892      3895      3897      3892      3895      3898
      3893      3892      3894      3893      3892      3895      3894      3892      3895
      3895      3898      3899      3895      3898      3900      3895      3898      3901
      3896      3895      3897      3896      3895      3898      3897      3895      3898
      3898      3901      3902      3898      3901      3903      3898      3901      3904
      3899      3898      3900      3899      3898      3901      3900      3898      3901
      3902      3901      3903      3902      3901      3904      3903      3901      3904
      3905      3907      3908      3905      3907      3909      3905      3907      3910
      3906      3905      3907      3907      3910      3911      3907      3910      3912
      3907      3910      3913      3908      3907      3909      3908      3907      3910
      3909      3907      3910      3910      3913      3914      3910      3913      3915
      3910      3913      3916      3911      3910      3912      3911      3910      3913
      3912      3910      3913      3913      3916      3917      3913      3916      3918
      3913      3916      3919      3914      3913      3915      3914      3913      3916
      3915      3913      3916      3916      3919      3920      3916      3919      3921
      3916      3919      3922      3917      3916      3918      3917      3916      3919
      3918      3916      3919      3919      3922      3923      3919      3922      3924
      3919      3922      3925      3920      3919      3921      3920      3919      3922
      3921      3919      3922      3922      3925      3926      3922      3925      3927
      3922      3925      3928      3923      3922      3924      3923      3922      3925
      3924      3922      3925      3925      3928      3929      3925      3928      3930
      3926      3925      3927      3926      3925      3928      3927      3925      3928
      3928      3930      3931      3928      3930      3932      3929      3928      3930
      3930      3932      3933      3930      3932      3934      3930      3932      3935
      3931      3930      3932      3932      3935      3936      3932      3935      3937
      3932      3935      3938      3933      3932      3934      3933      3932      3935
      3934      3932      3935      3935      3938      3939      3935      3938      3940
      3935      3938      3941      3936      3935      3937      3936      3935      3938
      3937      3935      3938      3938      3941      3942      3938      3941      3943
      3938      3941      3944      3939      3938      3940      3939      3938      3941
      3940      3938      3941      3941      3944      3945      3941      3944      3946
      3941      3944      3947      3942      3941      3943      3942      3941      3944
      3943      3941      3944      3944      3947      3948      3944      3947      3949
      3944      3947      3950      3945      3944      3946      3945      3944      3947
      3946      3944      3947      3947      3950      3951      3947      3950      3952
      3947      3950      3953      3948      3947      3949      3948      3947      3950
      3949      3947      3950      3950      3953      3954      3950      3953      3955
      3950      3953      3956      3951      3950      3952      3951      3950      3953
      3952      3950      3953      3954      3953      3955      3954      3953      3956
      3955      3953      3956      3957      3959      3960      3957      3961      3962
      3957      3961      3963      3957      3961      3964      3957      4003      4000
      3957      4003      4004      3957      4003      4005      3958      3957      3959
      3958      3957      3961      3958      3957      4003      3959      3957      3961
      3959      3957      4003      3961      3957      4003      3961      3964      3965
      3961      3964      3995      3962      3961      3963      3962      3961      3964
      3963      3961      3964      3964      3965      3966      3964      3965      3967
      3964      3995      3993      3964      3995      3996      3964      3995      4000
      3965      3964      3995      3965      3967      3968      3965      3967      3969
      3965      3967      3970      3966      3965      3967      3967      3970      3971
      3967      3970      3972      3967      3970      3993      3968      3967      3969
      3968      3967      3970      3969      3967      3970      3970      3972      3973
      3970      3972      3974      3970      3972      3982      3970      3993      3990
      3970      3993      3994      3970      3993      3995      3971      3970      3972
      3971      3970      3993      3972      3970      3993      3972      3974      3975
      3972      3974      3976      3972      3974      3977      3972      3982      3980
      3972      3982      3983      3972      3982      3987      3973      3972      3974
      3973      3972      3982      3974      3972      3982      3974      3977      3978
      3974      3977      3979      3974      3977      3980      3975      3974      3976
      3975      3974      3977      3976      3974      3977      3977      3980      3981
      3977      3980      3982      3977      3980      4006      3978      3977      3979
      3978      3977      3980      3979      3977      3980      3980      3982      3983
      3980      3982      3987      3980      4006      4007      3980      4006      4008
      3980      4006      4012      3981      3980      3982      3981      3980      4006
      3982      3980      4006      3982      3983      3984      3982      3983      3985
      3982      3983      3986      3982      3987      3988      3982      3987      3989
      3982      3987      3990      3983      3982      3987      3984      3983      3985
      3984      3983      3986      3985      3983      3986      3987      3990      3991
      3987      3990      3992      3987      3990      3993      3988      3987      3989
      3988      3987      3990      3989      3987      3990      3990      3993      3994
      3990      3993      3995      3991      3990      3992      3991      3990      3993
      3992      3990      3993      3993      3995      3996      3993      3995      4000
      3994      3993      3995      3995      3996      3997      3995      3996      3998
      3995      3996      3999      3995      4000      4001      3995      4000      4002
      3995      4000      4003      3996      3995      4000      3997      3996      3998
      3997      3996      3999      3998      3996      3999      4000      4003      4004
      4000      4003      4005      4001      4000      4002      4001      4000      4003
      4002      4000      4003      4004      4003      4005      4006      4008      4009
      4006      4008      4010      4006      4008      4011      4006      4012      4013
      4006      4012      4014      4006      4012      4015      4007      4006      4008
      4007      4006      4012      4008      4006      4012      4009      4008      4010
      4009      4008      4011      4010      4008      4011      4012      4015      4016
      4012      4015      4017      4012      4015      4018      4013      4012      4014
      4013      4012      4015      4014      4012      4015      4015      4018      4019
      4015      4018      4020      4015      4018      4021      4016      4015      4017
      4016      4015      4018      4017      4015      4018      4018      4021      4022
      4018      4021      4023      4018      4021      4027      4019      4018      4020
      4019      4018      4021      4020      4018      4021      4021      4023      4024
      4021      4023      4025      4021      4023      4026      4021      4027      4028
      4021      4027      4029      4021      4027      4030      4022      4021      4023
      4022      4021      4027      4023      4021      4027      4024      4023      4025
      4024      4023      4026      4025      4023      4026      4028      4027      4029
      4028      4027      4030      4029      4027      4030      4031      4032      4033
      4031      4032      4034      4031      4032      4047      4031      4035      4036
      4031      4035      4037      4031      4035      4038      4031      4039      4040
      4031      4039      4041      4031      4039      4042      4031      4043      4044
      4031      4043      4045      4031      4043      4046      4032      4031      4035
      4032      4031      4039      4032      4031      4043      4032      4047      4048
      4032      4047      4049      4032      4047      4053      4033      4032      4034
      4033      4032      4047      4034      4032      4047      4035      4031      4039
      4035      4031      4043      4036      4035      4037      4036      4035      4038
      4037      4035      4038      4039      4031      4043      4040      4039      4041
      4040      4039      4042      4041      4039      4042      4044      4043      4045
      4044      4043      4046      4045      4043      4046      4047      4053      4050
      4048      4047      4049      4048      4047      4053      4049      4047      4053
      4050      4054      4055      4051      4050      4052      4051      4050      4053
      4051      4050      4054      4052      4050      4053      4052      4050      4054
      4053      4050      4054      4054      4055      4056      4054      4055      4057
      4054      4055      4058      4055      4058      4059      4055      4058      4060
      4055      4058      4066      4056      4055      4057      4056      4055      4058
      4057      4055      4058      4058      4060      4061      4058      4066      4067
      4058      4066      4068      4058      4066      4069      4059      4058      4060
      4059      4058      4066      4060      4058      4066      4060      4061      4062
      4060      4061      4063      4061      4063      4064      4061      4063      4065
      4061      4063      4075      4062      4061      4063      4063      4075      4076
      4063      4075      4077      4063      4075      4078      4064      4063      4065
      4064      4063      4075      4065      4063      4075      4066      4069      4070
      4067      4066      4068      4067      4066      4069      4068      4066      4069
      4069      4070      4071      4069      4070      4072      4070      4072      4073
      4070      4072      4074      4070      4072      4122      4071      4070      4072
      4072      4122      4123      4072      4122      4124      4072      4122      4125
      4073      4072      4074      4073      4072      4122      4074      4072      4122
      4075      4078      4079      4075      4078      4080      4075      4078      4081
      4076      4075      4077      4076      4075      4078      4077      4075      4078
      4078      4081      4082      4078      4081      4083      4078      4081      4084
      4079      4078      4080      4079      4078      4081      4080      4078      4081
      4081      4084      4085      4081      4084      4086      4081      4084      4087
      4082      4081      4083      4082      4081      4084      4083      4081      4084
      4084      4087      4088      4084      4087      4089      4084      4087      4090
      4085      4084      4086      4085      4084      4087      4086      4084      4087
      4087      4090      4091      4087      4090      4092      4087      4090      4093
      4088      4087      4089      4088      4087      4090      4089      4087      4090
      4090      4093      4094      4090      4093      4095      4091      4090      4092
      4091      4090      4093      4092      4090      4093      4093      4095      4096
      4093      4095      4097      4094      4093      4095      4095      4097      4098
      4095      4097      4099      4095      4097      4100      4096      4095      4097
      4097      4100      4101      4097      4100      4102      4097      4100      4103
      4098      4097      4099      4098      4097      4100      4099      4097      4100
      4100      4103      4104      4100      4103      4105      4100      4103      4106
      4101      4100      4102      4101      4100      4103      4102      4100      4103
      4103      4106      4107      4103      4106      4108      4103      4106      4109
      4104      4103      4105      4104      4103      4106      4105      4103      4106
      4106      4109      4110      4106      4109      4111      4106      4109      4112
      4107      4106      4108      4107      4106      4109      4108      4106      4109
      4109      4112      4113      4109      4112      4114      4109      4112      4115
      4110      4109      4111      4110      4109      4112      4111      4109      4112
      4112      4115      4116      4112      4115      4117      4112      4115      4118
      4113      4112      4114      4113      4112      4115      4114      4112      4115
      4115      4118      4119      4115      4118      4120      4115      4118      4121
      4116      4115      4117      4116      4115      4118      4117      4115      4118
      4119      4118      4120      4119      4118      4121      4120      4118      4121
      4122      4125      4126      4122      4125      4127      4122      4125      4128
      4123      4122      4124      4123      4122      4125      4124      4122      4125
      4125      4128      4129      4125      4128      4130      4125      4128      4131
      4126      4125      4127      4126      4125      4128      4127      4125      4128
      4128      4131      4132      4128      4131      4133      4128      4131      4134
      4129      4128      4130      4129      4128      4131      4130      4128      4131
      4131      4134      4135      4131      4134      4136      4131      4134      4137
      4132      4131      4133      4132      4131      4134      4133      4131      4134
      4134      4137      4138      4134      4137      4139      4134      4137      4140
      4135      4134      4136      4135      4134      4137      4136      4134      4137
      4137      4140      4141      4137      4140      4142      4137      4140      4143
      4138      4137      4139      4138      4137      4140      4139      4137      4140
      4140      4143      4144      4140      4143      4145      4140      4143      4146
      4141      4140      4142      4141      4140      4143      4142      4140      4143
      4143      4146      4147      4143      4146      4148      4143      4146      4149
      4144      4143      4145      4144      4143      4146      4145      4143      4146
      4146      4149      4150      4146      4149      4151      4146      4149      4152
      4147      4146      4148      4147      4146      4149      4148      4146      4149
      4149      4152      4153      4149      4152      4154      4149      4152      4155
      4150      4149      4151      4150      4149      4152      4151      4149      4152
      4152      4155      4156      4152      4155      4157      4152      4155      4158
      4153      4152      4154      4153      4152      4155      4154      4152      4155
      4155      4158      4159      4155      4158      4160      4155      4158      4161
      4156      4155      4157      4156      4155      4158      4157      4155      4158
      4158      4161      4162      4158      4161      4163      4158      4161      4164
      4159      4158      4160      4159      4158      4161      4160      4158      4161
      4162      4161      4163      4162      4161      4164      4163      4161      4164
      4165      4166      4167      4165      4166      4168      4165      4166      4169
      4165      4170      4171      4165      4170      4172      4165      4170      4173
      4165      4174      4175      4165      4174      4176      4165      4174      4177
      4165      4178      4179      4165      4178      4180      4165      4178      4181
      4166      4165      4170      4166      4165      4174      4166      4165      4178
      4167      4166      4168      4167      4166      4169      4168      4166      4169
      4170      4165      4174      4170      4165      4178      4171      4170      4172
      4171      4170      4173      4172      4170      4173      4174      4165      4178
      4175      4174      4176      4175      4174      4177      4176      4174      4177
      4178      4181      4182      4178      4181      4183      4178      4181      4188
      4179      4178      4180      4179      4178      4181      4180      4178      4181
      4181      4188      4184      4182      4181      4183      4182      4181      4188
      4183      4181      4188      4184      4187      4189      4185      4184      4186
      4185      4184      4187      4185      4184      4188      4186      4184      4187
      4186      4184      4188      4187      4184      4188      4187      4189      4190
      4187      4189      4191      4187      4189      4194      4189      4194      4192
      4189      4194      4195      4189      4194      4196      4190      4189      4191
      4190      4189      4194      4191      4189      4194      4192      4194      4195
      4192      4194      4196      4192      4244      4245      4192      4244      4246
      4193      4192      4194      4193      4192      4244      4194      4192      4244
      4194      4196      4197      4194      4196      4198      4194      4196      4200
      4195      4194      4196      4196      4198      4199      4196      4200      4201
      4196      4200      4202      4197      4196      4198      4197      4196      4200
      4198      4196      4200      4200      4202      4203      4200      4202      4204
      4201      4200      4202      4202      4204      4205      4202      4204      4206
      4202      4204      4207      4203      4202      4204      4204      4207      4208
      4204      4207      4209      4204      4207      4210      4205      4204      4206
      4205      4204      4207      4206      4204      4207      4207      4210      4211
      4207      4210      4212      4207      4210      4213      4208      4207      4209
      4208      4207      4210      4209      4207      4210      4210      4213      4214
      4210      4213      4215      4210      4213      4216      4211      4210      4212
      4211      4210      4213      4212      4210      4213      4213      4216      4217
      4213      4216      4218      4213      4216      4219      4214      4213      4215
      4214      4213      4216      4215      4213      4216      4216      4219      4220
      4216      4219      4221      4216      4219      4222      4217      4216      4218
      4217      4216      4219      4218      4216      4219      4219      4222      4223
      4219      4222      4224      4219      4222      4225      4220      4219      4221
      4220      4219      4222      4221      4219      4222      4222      4225      4226
      4222      4225      4227      4222      4225      4228      4223      4222      4224
      4223      4222      4225      4224      4222      4225      4225      4228      4229
      4225      4228      4230      4225      4228      4231      4226      4225      4227
      4226      4225      4228      4227      4225      4228      4228      4231      4232
      4228      4231      4233      4228      4231      4234      4229      4228      4230
      4229      4228      4231      4230      4228      4231      4231      4234      4235
      4231      4234      4236      4231      4234      4237      4232      4231      4233
      4232      4231      4234      4233      4231      4234      4234      4237      4238
      4234      4237      4239      4234      4237      4240      4235      4234      4236
      4235      4234      4237      4236      4234      4237      4237      4240      4241
      4237      4240      4242      4237      4240      4243      4238      4237      4239
      4238      4237      4240      4239      4237      4240      4241      4240      4242
      4241      4240      4243      4242      4240      4243      4244      4246      4247
      4244      4246      4248      4244      4246      4249      4245      4244      4246
      4246      4249      4250      4246      4249      4251      4246      4249      4252
      4247      4246      4248      4247      4246      4249      4248      4246      4249
      4249      4252      4253      4249      4252      4254      4249      4252      4255
      4250      4249      4251      4250      4249      4252      4251      4249      4252
      4252      4255      4256      4252      4255      4257      4252      4255      4258
      4253      4252      4254      4253      4252      4255      4254      4252      4255
      4255      4258      4259      4255      4258      4260      4255      4258      4261
      4256      4255      4257      4256      4255      4258      4257      4255      4258
      4258      4261      4262      4258      4261      4263      4258      4261      4264
      4259      4258      4260      4259      4258      4261      4260      4258      4261
      4261      4264      4265      4261      4264      4266      4261      4264      4267
      4262      4261      4263      4262      4261      4264      4263      4261      4264
      4264      4267      4268      4264      4267      4269      4265      4264      4266
      4265      4264      4267      4266      4264      4267      4267      4269      4270
      4267      4269      4271      4268      4267      4269      4269      4271      4272
      4269      4271      4273      4269      4271      4274      4270      4269      4271
      4271      4274      4275      4271      4274      4276      4271      4274      4277
      4272      4271      4273      4272      4271      4274      4273      4271      4274
      4274      4277      4278      4274      4277      4279      4274      4277      4280
      4275      4274      4276      4275      4274      4277      4276      4274      4277
      4277      4280      4281      4277      4280      4282      4277      4280      4283
      4278      4277      4279      4278      4277      4280      4279      4277      4280
      4280      4283      4284      4280      4283      4285      4280      4283      4286
      4281      4280      4282      4281      4280      4283      4282      4280      4283
      4283      4286      4287      4283      4286      4288      4283      4286      4289
      4284      4283      4285      4284      4283      4286      4285      4283      4286
      4286      4289      4290      4286      4289      4291      4286      4289      4292
      4287      4286      4288      4287      4286      4289      4288      4286      4289
      4289      4292      4293      4289      4292      4294      4289      4292      4295
      4290      4289      4291      4290      4289      4292      4291      4289      4292
      4293      4292      4294      4293      4292      4295      4294      4292      4295
      4296      4298      4299      4296      4300      4301      4296      4300      4302
      4296      4300      4304      4296      4316      4312      4296      4316      4317
      4296      4316      4321      4297      4296      4298      4297      4296      4300
      4297      4296      4316      4298      4296      4300      4298      4296      4316
      4300      4296      4316      4300      4302      4303      4300      4304      4305
      4300      4304      4306      4300      4304      4308      4301      4300      4302
      4301      4300      4304      4302      4300      4304      4304      4306      4307
      4304      4308      4309      4304      4308      4310      4304      4308      4312
      4305      4304      4306      4305      4304      4308      4306      4304      4308
      4308      4310      4311      4308      4312      4313      4308      4312      4314
      4308      4312      4316      4309      4308      4310      4309      4308      4312
      4310      4308      4312      4312      4314      4315      4312      4316      4317
      4312      4316      4321      4313      4312      4314      4313      4312      4316
      4314      4312      4316      4316      4321      4318      4317      4316      4321
      4318      4322      4323      4319      4318      4320      4319      4318      4321
      4319      4318      4322      4320      4318      4321      4320      4318      4322
      4321      4318      4322      4322      4323      4324      4322      4323      4325
      4322      4323      4326      4323      4326      4327      4323      4326      4328
      4323      4326      4334      4324      4323      4325      4324      4323      4326
      4325      4323      4326      4326      4328      4329      4326      4334      4335
      4326      4334      4336      4326      4334      4337      4327      4326      4328
      4327      4326      4334      4328      4326      4334      4328      4329      4330
      4328      4329      4331      4329      4331      4332      4329      4331      4333
      4329      4331      4343      4330      4329      4331      4331      4343      4344
      4331      4343      4345      4331      4343      4346      4332      4331      4333
      4332      4331      4343      4333      4331      4343      4334      4337      4338
      4335      4334      4336      4335      4334      4337      4336      4334      4337
      4337      4338      4339      4337      4338      4340      4338      4340      4341
      4338      4340      4342      4338      4340      4390      4339      4338      4340
      4340      4390      4391      4340      4390      4392      4340      4390      4393
      4341      4340      4342      4341      4340      4390      4342      4340      4390
      4343      4346      4347      4343      4346      4348      4343      4346      4349
      4344      4343      4345      4344      4343      4346      4345      4343      4346
      4346      4349      4350      4346      4349      4351      4347      4346      4348
      4347      4346      4349      4348      4346      4349      4349      4351      4352
      4349      4351      4353      4350      4349      4351      4351      4353      4354
      4351      4353      4355      4351      4353      4356      4352      4351      4353
      4353      4356      4357      4353      4356      4358      4354      4353      4355
      4354      4353      4356      4355      4353      4356      4356      4358      4359
      4356      4358      4360      4357      4356      4358      4358      4360      4361
      4358      4360      4362      4358      4360      4363      4359      4358      4360
      4360      4363      4364      4360      4363      4365      4361      4360      4362
      4361      4360      4363      4362      4360      4363      4363      4365      4366
      4363      4365      4367      4364      4363      4365      4365      4367      4368
      4365      4367      4369      4365      4367      4370      4366      4365      4367
      4367      4370      4371      4367      4370      4372      4368      4367      4369
      4368      4367      4370      4369      4367      4370      4370      4372      4373
      4370      4372      4374      4371      4370      4372      4372      4374      4375
      4372      4374      4376      4372      4374      4377      4373      4372      4374
      4374      4377      4378      4374      4377      4379      4374      4377      4380
      4375      4374      4376      4375      4374      4377      4376      4374      4377
      4377      4380      4381      4377      4380      4382      4377      4380      4383
      4378      4377      4379      4378      4377      4380      4379      4377      4380
      4380      4383      4384      4380      4383      4385      4380      4383      4386
      4381      4380      4382      4381      4380      4383      4382      4380      4383
      4383      4386      4387      4383      4386      4388      4383      4386      4389
      4384      4383      4385      4384      4383      4386      4385      4383      4386
      4387      4386      4388      4387      4386      4389      4388      4386      4389
      4390      4393      4394      4390      4393      4395      4390      4393      4396
      4391      4390      4392      4391      4390      4393      4392      4390      4393
      4393      4396      4397      4393      4396      4398      4393      4396      4399
      4394      4393      4395      4394      4393      4396      4395      4393      4396
      4396      4399      4400      4396      4399      4401      4396      4399      4402
      4397      4396      4398      4397      4396      4399      4398      4396      4399
      4399      4402      4403      4399      4402      4404      4399      4402      4405
      4400      4399      4401      4400      4399      4402      4401      4399      4402
      4402      4405      4406      4402      4405      4407      4402      4405      4408
      4403      4402      4404      4403      4402      4405      4404      4402      4405
      4405      4408      4409      4405      4408      4410      4405      4408      4411
      4406      4405      4407      4406      4405      4408      4407      4405      4408
      4408      4411      4412      4408      4411      4413      4408      4411      4414
      4409      4408      4410      4409      4408      4411      4410      4408      4411
      4411      4414      4415      4411      4414      4416      4411      4414      4417
      4412      4411      4413      4412      4411      4414      4413      4411      4414
      4414      4417      4418      4414      4417      4419      4414      4417      4420
      4415      4414      4416      4415      4414      4417      4416      4414      4417
      4417      4420      4421      4417      4420      4422      4417      4420      4423
      4418      4417      4419      4418      4417      4420      4419      4417      4420
      4420      4423      4424      4420      4423      4425      4420      4423      4426
      4421      4420      4422      4421      4420      4423      4422      4420      4423
      4423      4426      4427      4423      4426      4428      4423      4426      4429
      4424      4423      4425      4424      4423      4426      4425      4423      4426
      4426      4429      4430      4426      4429      4431      4426      4429      4432
      4427      4426      4428      4427      4426      4429      4428      4426      4429
      4429      4432      4433      4429      4432      4434      4429      4432      4435
      4430      4429      4431      4430      4429      4432      4431      4429      4432
      4432      4435      4436      4432      4435      4437      4432      4435      4438
      4433      4432      4434      4433      4432      4435      4434      4432      4435
      4436      4435      4437      4436      4435      4438      4437      4435      4438
      4439      4443      4444      4439      4443      4445      4439      4443      4446
      4440      4439      4441      4440      4439      4442      4440      4439      4443
      4441      4439      4442      4441      4439      4443      4442      4439      4443
      4443      4446      4447      4443      4446      4448      4443      4446      4452
      4444      4443      4445      4444      4443      4446      4445      4443      4446
      4446      4452      4449      4447      4446      4448      4447      4446      4452
      4448      4446      4452      4449      4453      4454      4450      4449      4451
      4450      4449      4452      4450      4449      4453      4451      4449      4452
      4451      4449      4453      4452      4449      4453      4453      4454      4455
      4453      4454      4456      4453      4454      4457      4454      4457      4458
      4454      4457      4459      4454      4457      4465      4455      4454      4456
      4455      4454      4457      4456      4454      4457      4457      4459      4460
      4457      4465      4466      4457      4465      4467      4457      4465      4468
      4458      4457      4459      4458      4457      4465      4459      4457      4465
      4459      4460      4461      4459      4460      4462      4460      4462      4463
      4460      4462      4464      4460      4462      4474      4461      4460      4462
      4462      4474      4475      4462      4474      4476      4462      4474      4477
      4463      4462      4464      4463      4462      4474      4464      4462      4474
      4465      4468      4469      4466      4465      4467      4466      4465      4468
      4467      4465      4468      4468      4469      4470      4468      4469      4471
      4469      4471      4472      4469      4471      4473      4469      4471      4521
      4470      4469      4471      4471      4521      4522      4471      4521      4523
      4471      4521      4524      4472      4471      4473      4472      4471      4521
      4473      4471      4521      4474      4477      4478      4474      4477      4479
      4474      4477      4480      4475      4474      4476      4475      4474      4477
      4476      4474      4477      4477      4480      4481      4477      4480      4482
      4477      4480      4483      4478      4477      4479      4478      4477      4480
      4479      4477      4480      4480      4483      4484      4480      4483      4485
      4480      4483      4486      4481      4480      4482      4481      4480      4483
      4482      4480      4483      4483      4486      4487      4483      4486      4488
      4483      4486      4489      4484      4483      4485      4484      4483      4486
      4485      4483      4486      4486      4489      4490      4486      4489      4491
      4486      4489      4492      4487      4486      4488      4487      4486      4489
      4488      4486      4489      4489      4492      4493      4489      4492      4494
      4490      4489      4491      4490      4489      4492      4491      4489      4492
      4492      4494      4495      4492      4494      4496      4493      4492      4494
      4494      4496      4497      4494      4496      4498      4494      4496      4499
      4495      4494      4496      4496      4499      4500      4496      4499      4501
      4496      4499      4502      4497      4496      4498      4497      4496      4499
      4498      4496      4499      4499      4502      4503      4499      4502      4504
      4499      4502      4505      4500      4499      4501      4500      4499      4502
      4501      4499      4502      4502      4505      4506      4502      4505      4507
      4502      4505      4508      4503      4502      4504      4503      4502      4505
      4504      4502      4505      4505      4508      4509      4505      4508      4510
      4505      4508      4511      4506      4505      4507      4506      4505      4508
      4507      4505      4508      4508      4511      4512      4508      4511      4513
      4508      4511      4514      4509      4508      4510      4509      4508      4511
      4510      4508      4511      4511      4514      4515      4511      4514      4516
      4511      4514      4517      4512      4511      4513      4512      4511      4514
      4513      4511      4514      4514      4517      4518      4514      4517      4519
      4514      4517      4520      4515      4514      4516      4515      4514      4517
      4516      4514      4517      4518      4517      4519      4518      4517      4520
      4519      4517      4520      4521      4524      4525      4521      4524      4526
      4521      4524      4527      4522      4521      4523      4522      4521      4524
      4523      4521      4524      4524      4527      4528      4524      4527      4529
      4524      4527      4530      4525      4524      4526      4525      4524      4527
      4526      4524      4527      4527      4530      4531      4527      4530      4532
      4527      4530      4533      4528      4527      4529      4528      4527      4530
      4529      4527      4530      4530      4533      4534      4530      4533      4535
      4530      4533      4536      4531      4530      4532      4531      4530      4533
      4532      4530      4533      4533      4536      4537      4533      4536      4538
      4533      4536      4539      4534      4533      4535      4534      4533      4536
      4535      4533      4536      4536      4539      4540      4536      4539      4541
      4536      4539      4542      4537      4536      4538      4537      4536      4539
      4538      4536      4539      4539      4542      4543      4539      4542      4544
      4539      4542      4545      4540      4539      4541      4540      4539      4542
      4541      4539      4542      4542      4545      4546      4542      4545      4547
      4542      4545      4548      4543      4542      4544      4543      4542      4545
      4544      4542      4545      4545      4548      4549      4545      4548      4550
      4545      4548      4551      4546      4545      4547      4546      4545      4548
      4547      4545      4548      4548      4551      4552      4548      4551      4553
      4548      4551      4554      4549      4548      4550      4549      4548      4551
      4550      4548      4551      4551      4554      4555      4551      4554      4556
      4551      4554      4557      4552      4551      4553      4552      4551      4554
      4553      4551      4554      4554      4557      4558      4554      4557      4559
      4554      4557      4560      4555      4554      4556      4555      4554      4557
      4556      4554      4557      4557      4560      4561      4557      4560      4562
      4557      4560      4563      4558      4557      4559      4558      4557      4560
      4559      4557      4560      4560      4563      4564      4560      4563      4565
      4560      4563      4566      4561      4560      4562      4561      4560      4563
      4562      4560      4563      4563      4566      4567      4563      4566      4568
      4563      4566      4569      4564      4563      4565      4564      4563      4566
      4565      4563      4566      4567      4566      4568      4567      4566      4569
      4568      4566      4569      4570      4574      4575      4570      4574      4576
      4570      4574      4577      4571      4570      4572      4571      4570      4573
      4571      4570      4574      4572      4570      4573      4572      4570      4574
      4573      4570      4574      4574      4577      4578      4574      4577      4579
      4574      4577      4583      4575      4574      4576      4575      4574      4577
      4576      4574      4577      4577      4583      4580      4578      4577      4579
      4578      4577      4583      4579      4577      4583      4580      4584      4585
      4581      4580      4582      4581      4580      4583      4581      4580      4584
      4582      4580      4583      4582      4580      4584      4583      4580      4584
      4584      4585      4586      4584      4585      4587      4584      4585      4588
      4585      4588      4589      4585      4588      4590      4585      4588      4596
      4586      4585      4587      4586      4585      4588      4587      4585      4588
      4588      4590      4591      4588      4596      4597      4588      4596      4598
      4588      4596      4599      4589      4588      4590      4589      4588      4596
      4590      4588      4596      4590      4591      4592      4590      4591      4593
      4591      4593      4594      4591      4593      4595      4591      4593      4605
      4592      4591      4593      4593      4605      4606      4593      4605      4607
      4593      4605      4608      4594      4593      4595      4594      4593      4605
      4595      4593      4605      4596      4599      4600      4597      4596      4598
      4597      4596      4599      4598      4596      4599      4599      4600      4601
      4599      4600      4602      4600      4602      4603      4600      4602      4604
      4600      4602      4652      4601      4600      4602      4602      4652      4653
      4602      4652      4654      4602      4652      4655      4603      4602      4604
      4603      4602      4652      4604      4602      4652      4605      4608      4609
      4605      4608      4610      4605      4608      4611      4606      4605      4607
      4606      4605      4608      4607      4605      4608      4608      4611      4612
      4608      4611      4613      4609      4608      4610      4609      4608      4611
      4610      4608      4611      4611      4613      4614      4611      4613      4615
      4612      4611      4613      4613      4615      4616      4613      4615      4617
      4613      4615      4618      4614      4613      4615      4615      4618      4619
      4615      4618      4620      4616      4615      4617      4616      4615      4618
      4617      4615      4618      4618      4620      4621      4618      4620      4622
      4619      4618      4620      4620      4622      4623      4620      4622      4624
      4620      4622      4625      4621      4620      4622      4622      4625      4626
      4622      4625      4627      4623      4622      4624      4623      4622      4625
      4624      4622      4625      4625      4627      4628      4625      4627      4629
      4626      4625      4627      4627      4629      4630      4627      4629      4631
      4627      4629      4632      4628      4627      4629      4629      4632      4633
      4629      4632      4634      4630      4629      4631      4630      4629      4632
      4631      4629      4632      4632      4634      4635      4632      4634      4636
      4633      4632      4634      4634      4636      4637      4634      4636      4638
      4634      4636      4639      4635      4634      4636      4636      4639      4640
      4636      4639      4641      4636      4639      4642      4637      4636      4638
      4637      4636      4639      4638      4636      4639      4639      4642      4643
      4639      4642      4644      4639      4642      4645      4640      4639      4641
      4640      4639      4642      4641      4639      4642      4642      4645      4646
      4642      4645      4647      4642      4645      4648      4643      4642      4644
      4643      4642      4645      4644      4642      4645      4645      4648      4649
      4645      4648      4650      4645      4648      4651      4646      4645      4647
      4646      4645      4648      4647      4645      4648      4649      4648      4650
      4649      4648      4651      4650      4648      4651      4652      4655      4656
      4652      4655      4657      4652      4655      4658      4653      4652      4654
      4653      4652      4655      4654      4652      4655      4655      4658      4659
      4655      4658      4660      4655      4658      4661      4656      4655      4657
      4656      4655      4658      4657      4655      4658      4658      4661      4662
      4658      4661      4663      4658      4661      4664      4659      4658      4660
      4659      4658      4661      4660      4658      4661      4661      4664      4665
      4661      4664      4666      4661      4664      4667      4662      4661      4663
      4662      4661      4664      4663      4661      4664      4664      4667      4668
      4664      4667      4669      4664      4667      4670      4665      4664      4666
      4665      4664      4667      4666      4664      4667      4667      4670      4671
      4667      4670      4672      4667      4670      4673      4668      4667      4669
      4668      4667      4670      4669      4667      4670      4670      4673      4674
      4670      4673      4675      4670      4673      4676      4671      4670      4672
      4671      4670      4673      4672      4670      4673      4673      4676      4677
      4673      4676      4678      4673      4676      4679      4674      4673      4675
      4674      4673      4676      4675      4673      4676      4676      4679      4680
      4676      4679      4681      4676      4679      4682      4677      4676      4678
      4677      4676      4679      4678      4676      4679      4679      4682      4683
      4679      4682      4684      4679      4682      4685      4680      4679      4681
      4680      4679      4682      4681      4679      4682      4682      4685      4686
      4682      4685      4687      4682      4685      4688      4683      4682      4684
      4683      4682      4685      4684      4682      4685      4685      4688      4689
      4685      4688      4690      4685      4688      4691      4686      4685      4687
      4686      4685      4688      4687      4685      4688      4688      4691      4692
      4688      4691      4693      4688      4691      4694      4689      4688      4690
      4689      4688      4691      4690      4688      4691      4691      4694      4695
      4691      4694      4696      4691      4694      4697      4692      4691      4693
      4692      4691      4694      4693      4691      4694      4694      4697      4698
      4694      4697      4699      4694      4697      4700      4695      4694      4696
      4695      4694      4697      4696      4694      4697      4698      4697      4699
      4698      4697      4700      4699      4697      4700      4701      4702      4703
      4701      4702      4704      4701      4702      4705      4701      4706      4707
      4701      4706      4708      4701      4706      4709      4701      4710      4711
      4701      4710      4712      4701      4710      4713      4701      4714      4715
      4701      4714      4716      4701      4714      4717      4702      4701      4706
      4702      4701      4710      4702      4701      4714      4703      4702      4704
      4703      4702      4705      4704      4702      4705      4706      4701      4710
      4706      4701      4714      4707      4706      4708      4707      4706      4709
      4708      4706      4709      4710      4701      4714      4711      4710      4712
      4711      4710      4713      4712      4710      4713      4714      4717      4718
      4714      4717      4719      4714      4717      4724      4715      4714      4716
      4715      4714      4717      4716      4714      4717      4717      4724      4720
      4718      4717      4719      4718      4717      4724      4719      4717      4724
      4720      4723      4725      4721      4720      4722      4721      4720      4723
      4721      4720      4724      4722      4720      4723      4722      4720      4724
      4723      4720      4724      4723      4725      4726      4723      4725      4727
      4723      4725      4730      4725      4730      4728      4725      4730      4731
      4725      4730      4732      4726      4725      4727      4726      4725      4730
      4727      4725      4730      4728      4730      4731      4728      4730      4732
      4728      4780      4781      4728      4780      4782      4729      4728      4730
      4729      4728      4780      4730      4728      4780      4730      4732      4733
      4730      4732      4734      4730      4732      4736      4731      4730      4732
      4732      4734      4735      4732      4736      4737      4732      4736      4738
      4733      4732      4734      4733      4732      4736      4734      4732      4736
      4736      4738      4739      4736      4738      4740      4737      4736      4738
      4738      4740      4741      4738      4740      4742      4738      4740      4743
      4739      4738      4740      4740      4743      4744      4740      4743      4745
      4740      4743      4746      4741      4740      4742      4741      4740      4743
      4742      4740      4743      4743      4746      4747      4743      4746      4748
      4743      4746      4749      4744      4743      4745      4744      4743      4746
      4745      4743      4746      4746      4749      4750      4746      4749      4751
      4746      4749      4752      4747      4746      4748      4747      4746      4749
      4748      4746      4749      4749      4752      4753      4749      4752      4754
      4749      4752      4755      4750      4749      4751      4750      4749      4752
      4751      4749      4752      4752      4755      4756      4752      4755      4757
      4752      4755      4758      4753      4752      4754      4753      4752      4755
      4754      4752      4755      4755      4758      4759      4755      4758      4760
      4755      4758      4761      4756      4755      4757      4756      4755      4758
      4757      4755      4758      4758      4761      4762      4758      4761      4763
      4758      4761      4764      4759      4758      4760      4759      4758      4761
      4760      4758      4761      4761      4764      4765      4761      4764      4766
      4761      4764      4767      4762      4761      4763      4762      4761      4764
      4763      4761      4764      4764      4767      4768      4764      4767      4769
      4764      4767      4770      4765      4764      4766      4765      4764      4767
      4766      4764      4767      4767      4770      4771      4767      4770      4772
      4767      4770      4773      4768      4767      4769      4768      4767      4770
      4769      4767      4770      4770      4773      4774      4770      4773      4775
      4770      4773      4776      4771      4770      4772      4771      4770      4773
      4772      4770      4773      4773      4776      4777      4773      4776      4778
      4773      4776      4779      4774      4773      4775      4774      4773      4776
      4775      4773      4776      4777      4776      4778      4777      4776      4779
      4778      4776      4779      4780      4782      4783      4780      4782      4784
      4780      4782      4785      4781      4780      4782      4782      4785      4786
      4782      4785      4787      4782      4785      4788      4783      4782      4784
      4783      4782      4785      4784      4782      4785      4785      4788      4789
      4785      4788      4790      4785      4788      4791      4786      4785      4787
      4786      4785      4788      4787      4785      4788      4788      4791      4792
      4788      4791      4793      4788      4791      4794      4789      4788      4790
      4789      4788      4791      4790      4788      4791      4791      4794      4795
      4791      4794      4796      4791      4794      4797      4792      4791      4793
      4792      4791      4794      4793      4791      4794      4794      4797      4798
      4794      4797      4799      4794      4797      4800      4795      4794      4796
      4795      4794      4797      4796      4794      4797      4797      4800      4801
      4797      4800      4802      4797      4800      4803      4798      4797      4799
      4798      4797      4800      4799      4797      4800      4800      4803      4804
      4800      4803      4805      4801      4800      4802      4801      4800      4803
      4802      4800      4803      4803      4805      4806      4803      4805      4807
      4804      4803      4805      4805      4807      4808      4805      4807      4809
      4805      4807      4810      4806      4805      4807      4807      4810      4811
      4807      4810      4812      4807      4810      4813      4808      4807      4809
      4808      4807      4810      4809      4807      4810      4810      4813      4814
      4810      4813      4815      4810      4813      4816      4811      4810      4812
      4811      4810      4813      4812      4810      4813      4813      4816      4817
      4813      4816      4818      4813      4816      4819      4814      4813      4815
      4814      4813      4816      4815      4813      4816      4816      4819      4820
      4816      4819      4821      4816      4819      4822      4817      4816      4818
      4817      4816      4819      4818      4816      4819      4819      4822      4823
      4819      4822      4824      4819      4822      4825      4820      4819      4821
      4820      4819      4822      4821      4819      4822      4822      4825      4826
      4822      4825      4827      4822      4825      4828      4823      4822      4824
      4823      4822      4825      4824      4822      4825      4825      4828      4829
      4825      4828      4830      4825      4828      4831      4826      4825      4827
      4826      4825      4828      4827      4825      4828      4829      4828      4830
      4829      4828      4831      4830      4828      4831      4832      4836      4837
      4832      4836      4838      4832      4836      4839      4833      4832      4834
      4833      4832      4835      4833      4832      4836      4834      4832      4835
      4834      4832      4836      4835      4832      4836      4836      4839      4840
      4836      4839      4841      4836      4839      4845      4837      4836      4838
      4837      4836      4839      4838      4836      4839      4839      4845      4842
      4840      4839      4841      4840      4839      4845      4841      4839      4845
      4842      4846      4847      4843      4842      4844      4843      4842      4845
      4843      4842      4846      4844      4842      4845      4844      4842      4846
      4845      4842      4846      4846      4847      4848      4846      4847      4849
      4846      4847      4850      4847      4850      4851      4847      4850      4852
      4847      4850      4858      4848      4847      4849      4848      4847      4850
      4849      4847      4850      4850      4852      4853      4850      4858      4859
      4850      4858      4860      4850      4858      4861      4851      4850      4852
      4851      4850      4858      4852      4850      4858      4852      4853      4854
      4852      4853      4855      4853      4855      4856      4853      4855      4857
      4853      4855      4867      4854      4853      4855      4855      4867      4868
      4855      4867      4869      4855      4867      4870      4856      4855      4857
      4856      4855      4867      4857      4855      4867      4858      4861      4862
      4859      4858      4860      4859      4858      4861      4860      4858      4861
      4861      4862      4863      4861      4862      4864      4862      4864      4865
      4862      4864      4866      4862      4864      4914      4863      4862      4864
      4864      4914      4915      4864      4914      4916      4864      4914      4917
      4865      4864      4866      4865      4864      4914      4866      4864      4914
      4867      4870      4871      4867      4870      4872      4867      4870      4873
      4868      4867      4869      4868      4867      4870      4869      4867      4870
      4870      4873      4874      4870      4873      4875      4871      4870      4872
      4871      4870      4873      4872      4870      4873      4873      4875      4876
      4873      4875      4877      4874      4873      4875      4875      4877      4878
      4875      4877      4879      4875      4877      4880      4876      4875      4877
      4877      4880      4881      4877      4880      4882      4878      4877      4879
      4878      4877      4880      4879      4877      4880      4880      4882      4883
      4880      4882      4884      4881      4880      4882      4882      4884      4885
      4882      4884      4886      4882      4884      4887      4883      4882      4884
      4884      4887      4888      4884      4887      4889      4885      4884      4886
      4885      4884      4887      4886      4884      4887      4887      4889      4890
      4887      4889      4891      4888      4887      4889      4889      4891      4892
      4889      4891      4893      4889      4891      4894      4890      4889      4891
      4891      4894      4895      4891      4894      4896      4892      4891      4893
      4892      4891      4894      4893      4891      4894      4894      4896      4897
      4894      4896      4898      4895      4894      4896      4896      4898      4899
      4896      4898      4900      4896      4898      4901      4897      4896      4898
      4898      4901      4902      4898      4901      4903      4898      4901      4904
      4899      4898      4900      4899      4898      4901      4900      4898      4901
      4901      4904      4905      4901      4904      4906      4901      4904      4907
      4902      4901      4903      4902      4901      4904      4903      4901      4904
      4904      4907      4908      4904      4907      4909      4904      4907      4910
      4905      4904      4906      4905      4904      4907      4906      4904      4907
      4907      4910      4911      4907      4910      4912      4907      4910      4913
      4908      4907      4909      4908      4907      4910      4909      4907      4910
      4911      4910      4912      4911      4910      4913      4912      4910      4913
      4914      4917      4918      4914      4917      4919      4914      4917      4920
      4915      4914      4916      4915      4914      4917      4916      4914      4917
      4917      4920      4921      4917      4920      4922      4917      4920      4923
      4918      4917      4919      4918      4917      4920      4919      4917      4920
      4920      4923      4924      4920      4923      4925      4920      4923      4926
      4921      4920      4922      4921      4920      4923      4922      4920      4923
      4923      4926      4927      4923      4926      4928      4923      4926      4929
      4924      4923      4925      4924      4923      4926      4925      4923      4926
      4926      4929      4930      4926      4929      4931      4926      4929      4932
      4927      4926      4928      4927      4926      4929      4928      4926      4929
      4929      4932      4933      4929      4932      4934      4929      4932      4935
      4930      4929      4931      4930      4929      4932      4931      4929      4932
      4932      4935      4936      4932      4935      4937      4932      4935      4938
      4933      4932      4934      4933      4932      4935      4934      4932      4935
      4935      4938      4939      4935      4938      4940      4935      4938      4941
      4936      4935      4937      4936      4935      4938      4937      4935      4938
      4938      4941      4942      4938      4941      4943      4938      4941      4944
      4939      4938      4940      4939      4938      4941      4940      4938      4941
      4941      4944      4945      4941      4944      4946      4941      4944      4947
      4942      4941      4943      4942      4941      4944      4943      4941      4944
      4944      4947      4948      4944      4947      4949      4944      4947      4950
      4945      4944      4946      4945      4944      4947      4946      4944      4947
      4947      4950      4951      4947      4950      4952      4947      4950      4953
      4948      4947      4949      4948      4947      4950      4949      4947      4950
      4950      4953      4954      4950      4953      4955      4950      4953      4956
      4951      4950      4952      4951      4950      4953      4952      4950      4953
      4953      4956      4957      4953      4956      4958      4953      4956      4959
      4954      4953      4955      4954      4953      4956      4955      4953      4956
      4956      4959      4960      4956      4959      4961      4956      4959      4962
      4957      4956      4958      4957      4956      4959      4958      4956      4959
      4960      4959      4961      4960      4959      4962      4961      4959      4962
      4963      4964      4965      4963      4964      4966      4963      4964      4967
      4963      4968      4969      4963      4968      4970      4963      4968      4971
      4963      4972      4973      4963      4972      4974      4963      4972      4975
      4963      4976      4977      4963      4976      4978      4963      4976      4979
      4964      4963      4968      4964      4963      4972      4964      4963      4976
      4965      4964      4966      4965      4964      4967      4966      4964      4967
      4968      4963      4972      4968      4963      4976      4969      4968      4970
      4969      4968      4971      4970      4968      4971      4972      4963      4976
      4973      4972      4974      4973      4972      4975      4974      4972      4975
      4976      4979      4980      4976      4979      4981      4976      4979      4986
      4977      4976      4978      4977      4976      4979      4978      4976      4979
      4979      4986      4982      4980      4979      4981      4980      4979      4986
      4981      4979      4986      4982      4985      4987      4983      4982      4984
      4983      4982      4985      4983      4982      4986      4984      4982      4985
      4984      4982      4986      4985      4982      4986      4985      4987      4988
      4985      4987      4989      4985      4987      4992      4987      4992      4990
      4987      4992      4993      4987      4992      4994      4988      4987      4989
      4988      4987      4992      4989      4987      4992      4990      4992      4993
      4990      4992      4994      4990      5042      5043      4990      5042      5044
      4991      4990      4992      4991      4990      5042      4992      4990      5042
      4992      4994      4995      4992      4994      4996      4992      4994      4998
      4993      4992      4994      4994      4996      4997      4994      4998      4999
      4994      4998      5000      4995      4994      4996      4995      4994      4998
      4996      4994      4998      4998      5000      5001      4998      5000      5002
      4999      4998      5000      5000      5002      5003      5000      5002      5004
      5000      5002      5005      5001      5000      5002      5002      5005      5006
      5002      5005      5007      5002      5005      5008      5003      5002      5004
      5003      5002      5005      5004      5002      5005      5005      5008      5009
      5005      5008      5010      5005      5008      5011      5006      5005      5007
      5006      5005      5008      5007      5005      5008      5008      5011      5012
      5008      5011      5013      5008      5011      5014      5009      5008      5010
      5009      5008      5011      5010      5008      5011      5011      5014      5015
      5011      5014      5016      5011      5014      5017      5012      5011      5013
      5012      5011      5014      5013      5011      5014      5014      5017      5018
      5014      5017      5019      5014      5017      5020      5015      5014      5016
      5015      5014      5017      5016      5014      5017      5017      5020      5021
      5017      5020      5022      5017      5020      5023      5018      5017      5019
      5018      5017      5020      5019      5017      5020      5020      5023      5024
      5020      5023      5025      5020      5023      5026      5021      5020      5022
      5021      5020      5023      5022      5020      5023      5023      5026      5027
      5023      5026      5028      5023      5026      5029      5024      5023      5025
      5024      5023      5026      5025      5023      5026      5026      5029      5030
      5026      5029      5031      5026      5029      5032      5027      5026      5028
      5027      5026      5029      5028      5026      5029      5029      5032      5033
      5029      5032      5034      5029      5032      5035      5030      5029      5031
      5030      5029      5032      5031      5029      5032      5032      5035      5036
      5032      5035      5037      5032      5035      5038      5033      5032      5034
      5033      5032      5035      5034      5032      5035      5035      5038      5039
      5035      5038      5040      5035      5038      5041      5036      5035      5037
      5036      5035      5038      5037      5035      5038      5039      5038      5040
      5039      5038      5041      5040      5038      5041      5042      5044      5045
      5042      5044      5046      5042      5044      5047      5043      5042      5044
      5044      5047      5048      5044      5047      5049      5044      5047      5050
      5045      5044      5046      5045      5044      5047      5046      5044      5047
      5047      5050      5051      5047      5050      5052      5047      5050      5053
      5048      5047      5049      5048      5047      5050      5049      5047      5050
      5050      5053      5054      5050      5053      5055      5050      5053      5056
      5051      5050      5052      5051      5050      5053      5052      5050      5053
      5053      5056      5057      5053      5056      5058      5053      5056      5059
      5054      5053      5055      5054      5053      5056      5055      5053      5056
      5056      5059      5060      5056      5059      5061      5056      5059      5062
      5057      5056      5058      5057      5056      5059      5058      5056      5059
      5059      5062      5063      5059      5062      5064      5059      5062      5065
      5060      5059      5061      5060      5059      5062      5061      5059      5062
      5062      5065      5066      5062      5065      5067      5063      5062      5064
      5063      5062      5065      5064      5062      5065      5065      5067      5068
      5065      5067      5069      5066      5065      5067      5067      5069      5070
      5067      5069      5071      5067      5069      5072      5068      5067      5069
      5069      5072      5073      5069      5072      5074      5069      5072      5075
      5070      5069      5071      5070      5069      5072      5071      5069      5072
      5072      5075      5076      5072      5075      5077      5072      5075      5078
      5073      5072      5074      5073      5072      5075      5074      5072      5075
      5075      5078      5079      5075      5078      5080      5075      5078      5081
      5076      5075      5077      5076      5075      5078      5077      5075      5078
      5078      5081      5082      5078      5081      5083      5078      5081      5084
      5079      5078      5080      5079      5078      5081      5080      5078      5081
      5081      5084      5085      5081      5084      5086      5081      5084      5087
      5082      5081      5083      5082      5081      5084      5083      5081      5084
      5084      5087      5088      5084      5087      5089      5084      5087      5090
      5085      5084      5086      5085      5084      5087      5086      5084      5087
      5087      5090      5091      5087      5090      5092      5087      5090      5093
      5088      5087      5089      5088      5087      5090      5089      5087      5090
      5091      5090      5092      5091      5090      5093      5092      5090      5093
      5094      5098      5099      5094      5098      5100      5094      5098      5101
      5095      5094      5096      5095      5094      5097      5095      5094      5098
      5096      5094      5097      5096      5094      5098      5097      5094      5098
      5098      5101      5102      5098      5101      5103      5098      5101      5107
      5099      5098      5100      5099      5098      5101      5100      5098      5101
      5101      5107      5104      5102      5101      5103      5102      5101      5107
      5103      5101      5107      5104      5108      5109      5105      5104      5106
      5105      5104      5107      5105      5104      5108      5106      5104      5107
      5106      5104      5108      5107      5104      5108      5108      5109      5110
      5108      5109      5111      5108      5109      5112      5109      5112      5113
      5109      5112      5114      5109      5112      5120      5110      5109      5111
      5110      5109      5112      5111      5109      5112      5112      5114      5115
      5112      5120      5121      5112      5120      5122      5112      5120      5123
      5113      5112      5114      5113      5112      5120      5114      5112      5120
      5114      5115      5116      5114      5115      5117      5115      5117      5118
      5115      5117      5119      5115      5117      5129      5116      5115      5117
      5117      5129      5130      5117      5129      5131      5117      5129      5132
      5118      5117      5119      5118      5117      5129      5119      5117      5129
      5120      5123      5124      5121      5120      5122      5121      5120      5123
      5122      5120      5123      5123      5124      5125      5123      5124      5126
      5124      5126      5127      5124      5126      5128      5124      5126      5176
      5125      5124      5126      5126      5176      5177      5126      5176      5178
      5126      5176      5179      5127      5126      5128      5127      5126      5176
      5128      5126      5176      5129      5132      5133      5129      5132      5134
      5129      5132      5135      5130      5129      5131      5130      5129      5132
      5131      5129      5132      5132      5135      5136      5132      5135      5137
      5133      5132      5134      5133      5132      5135      5134      5132      5135
      5135      5137      5138      5135      5137      5139      5136      5135      5137
      5137      5139      5140      5137      5139      5141      5137      5139      5142
      5138      5137      5139      5139      5142      5143      5139      5142      5144
      5140      5139      5141      5140      5139      5142      5141      5139      5142
      5142      5144      5145      5142      5144      5146      5143      5142      5144
      5144      5146      5147      5144      5146      5148      5144      5146      5149
      5145      5144      5146      5146      5149      5150      5146      5149      5151
      5147      5146      5148      5147      5146      5149      5148      5146      5149
      5149      5151      5152      5149      5151      5153      5150      5149      5151
      5151      5153      5154      5151      5153      5155      5151      5153      5156
      5152      5151      5153      5153      5156      5157      5153      5156      5158
      5154      5153      5155      5154      5153      5156      5155      5153      5156
      5156      5158      5159      5156      5158      5160      5157      5156      5158
      5158      5160      5161      5158      5160      5162      5158      5160      5163
      5159      5158      5160      5160      5163      5164      5160      5163      5165
      5160      5163      5166      5161      5160      5162      5161      5160      5163
      5162      5160      5163      5163      5166      5167      5163      5166      5168
      5163      5166      5169      5164      5163      5165      5164      5163      5166
      5165      5163      5166      5166      5169      5170      5166      5169      5171
      5166      5169      5172      5167      5166      5168      5167      5166      5169
      5168      5166      5169      5169      5172      5173      5169      5172      5174
      5169      5172      5175      5170      5169      5171      5170      5169      5172
      5171      5169      5172      5173      5172      5174      5173      5172      5175
      5174      5172      5175      5176      5179      5180      5176      5179      5181
      5176      5179      5182      5177      5176      5178      5177      5176      5179
      5178      5176      5179      5179      5182      5183      5179      5182      5184
      5179      5182      5185      5180      5179      5181      5180      5179      5182
      5181      5179      5182      5182      5185      5186      5182      5185      5187
      5182      5185      5188      5183      5182      5184      5183      5182      5185
      5184      5182      5185      5185      5188      5189      5185      5188      5190
      5185      5188      5191      5186      5185      5187      5186      5185      5188
      5187      5185      5188      5188      5191      5192      5188      5191      5193
      5188      5191      5194      5189      5188      5190      5189      5188      5191
      5190      5188      5191      5191      5194      5195      5191      5194      5196
      5191      5194      5197      5192      5191      5193      5192      5191      5194
      5193      5191      5194      5194      5197      5198      5194      5197      5199
      5194      5197      5200      5195      5194      5196      5195      5194      5197
      5196      5194      5197      5197      5200      5201      5197      5200      5202
      5197      5200      5203      5198      5197      5199      5198      5197      5200
      5199      5197      5200      5200      5203      5204      5200      5203      5205
      5200      5203      5206      5201      5200      5202      5201      5200      5203
      5202      5200      5203      5203      5206      5207      5203      5206      5208
      5203      5206      5209      5204      5203      5205      5204      5203      5206
      5205      5203      5206      5206      5209      5210      5206      5209      5211
      5206      5209      5212      5207      5206      5208      5207      5206      5209
      5208      5206      5209      5209      5212      5213      5209      5212      5214
      5209      5212      5215      5210      5209      5211      5210      5209      5212
      5211      5209      5212      5212      5215      5216      5212      5215      5217
      5212      5215      5218      5213      5212      5214      5213      5212      5215
      5214      5212      5215      5215      5218      5219      5215      5218      5220
      5215      5218      5221      5216      5215      5217      5216      5215      5218
      5217      5215      5218      5218      5221      5222      5218      5221      5223
      5218      5221      5224      5219      5218      5220      5219      5218      5221
      5220      5218      5221      5222      5221      5223      5222      5221      5224
      5223      5221      5224      5225      5227      5228      5225      5229      5230
      5225      5229      5231      5225      5229      5232      5225      5271      5268
      5225      5271      5272      5225      5271      5273      5226      5225      5227
      5226      5225      5229      5226      5225      5271      5227      5225      5229
      5227      5225      5271      5229      5225      5271      5229      5232      5233
      5229      5232      5263      5230      5229      5231      5230      5229      5232
      5231      5229      5232      5232      5233      5234      5232      5233      5235
      5232      5263      5261      5232      5263      5264      5232      5263      5268
      5233      5232      5263      5233      5235      5236      5233      5235      5237
      5233      5235      5238      5234      5233      5235      5235      5238      5239
      5235      5238      5240      5235      5238      5261      5236      5235      5237
      5236      5235      5238      5237      5235      5238      5238      5240      5241
      5238      5240      5242      5238      5240      5250      5238      5261      5258
      5238      5261      5262      5238      5261      5263      5239      5238      5240
      5239      5238      5261      5240      5238      5261      5240      5242      5243
      5240      5242      5244      5240      5242      5245      5240      5250      5248
      5240      5250      5251      5240      5250      5255      5241      5240      5242
      5241      5240      5250      5242      5240      5250      5242      5245      5246
      5242      5245      5247      5242      5245      5248      5243      5242      5244
      5243      5242      5245      5244      5242      5245      5245      5248      5249
      5245      5248      5250      5245      5248      5274      5246      5245      5247
      5246      5245      5248      5247      5245      5248      5248      5250      5251
      5248      5250      5255      5248      5274      5275      5248      5274      5276
      5248      5274      5280      5249      5248      5250      5249      5248      5274
      5250      5248      5274      5250      5251      5252      5250      5251      5253
      5250      5251      5254      5250      5255      5256      5250      5255      5257
      5250      5255      5258      5251      5250      5255      5252      5251      5253
      5252      5251      5254      5253      5251      5254      5255      5258      5259
      5255      5258      5260      5255      5258      5261      5256      5255      5257
      5256      5255      5258      5257      5255      5258      5258      5261      5262
      5258      5261      5263      5259      5258      5260      5259      5258      5261
      5260      5258      5261      5261      5263      5264      5261      5263      5268
      5262      5261      5263      5263      5264      5265      5263      5264      5266
      5263      5264      5267      5263      5268      5269      5263      5268      5270
      5263      5268      5271      5264      5263      5268      5265      5264      5266
      5265      5264      5267      5266      5264      5267      5268      5271      5272
      5268      5271      5273      5269      5268      5270      5269      5268      5271
      5270      5268      5271      5272      5271      5273      5274      5276      5277
      5274      5276      5278      5274      5276      5279      5274      5280      5281
      5274      5280      5282      5274      5280      5283      5275      5274      5276
      5275      5274      5280      5276      5274      5280      5277      5276      5278
      5277      5276      5279      5278      5276      5279      5280      5283      5284
      5280      5283      5285      5280      5283      5286      5281      5280      5282
      5281      5280      5283      5282      5280      5283      5283      5286      5287
      5283      5286      5288      5283      5286      5289      5284      5283      5285
      5284      5283      5286      5285      5283      5286      5286      5289      5290
      5286      5289      5291      5286      5289      5295      5287      5286      5288
      5287      5286      5289      5288      5286      5289      5289      5291      5292
      5289      5291      5293      5289      5291      5294      5289      5295      5296
      5289      5295      5297      5289      5295      5298      5290      5289      5291
      5290      5289      5295      5291      5289      5295      5292      5291      5293
      5292      5291      5294      5293      5291      5294      5296      5295      5297
      5296      5295      5298      5297      5295      5298      5299      5300      5301
      5299      5300      5302      5299      5300      5315      5299      5303      5304
      5299      5303      5305      5299      5303      5306      5299      5307      5308
      5299      5307      5309      5299      5307      5310      5299      5311      5312
      5299      5311      5313      5299      5311      5314      5300      5299      5303
      5300      5299      5307      5300      5299      5311      5300      5315      5316
      5300      5315      5317      5300      5315      5321      5301      5300      5302
      5301      5300      5315      5302      5300      5315      5303      5299      5307
      5303      5299      5311      5304      5303      5305      5304      5303      5306
      5305      5303      5306      5307      5299      5311      5308      5307      5309
      5308      5307      5310      5309      5307      5310      5312      5311      5313
      5312      5311      5314      5313      5311      5314      5315      5321      5318
      5316      5315      5317      5316      5315      5321      5317      5315      5321
      5318      5322      5323      5319      5318      5320      5319      5318      5321
      5319      5318      5322      5320      5318      5321      5320      5318      5322
      5321      5318      5322      5322      5323      5324      5322      5323      5325
      5322      5323      5326      5323      5326      5327      5323      5326      5328
      5323      5326      5334      5324      5323      5325      5324      5323      5326
      5325      5323      5326      5326      5328      5329      5326      5334      5335
      5326      5334      5336      5326      5334      5337      5327      5326      5328
      5327      5326      5334      5328      5326      5334      5328      5329      5330
      5328      5329      5331      5329      5331      5332      5329      5331      5333
      5329      5331      5343      5330      5329      5331      5331      5343      5344
      5331      5343      5345      5331      5343      5346      5332      5331      5333
      5332      5331      5343      5333      5331      5343      5334      5337      5338
      5335      5334      5336      5335      5334      5337      5336      5334      5337
      5337      5338      5339      5337      5338      5340      5338      5340      5341
      5338      5340      5342      5338      5340      5390      5339      5338      5340
      5340      5390      5391      5340      5390      5392      5340      5390      5393
      5341      5340      5342      5341      5340      5390      5342      5340      5390
      5343      5346      5347      5343      5346      5348      5343      5346      5349
      5344      5343      5345      5344      5343      5346      5345      5343      5346
      5346      5349      5350      5346      5349      5351      5347      5346      5348
      5347      5346      5349      5348      5346      5349      5349      5351      5352
      5349      5351      5353      5350      5349      5351      5351      5353      5354
      5351      5353      5355      5351      5353      5356      5352      5351      5353
      5353      5356      5357      5353      5356      5358      5354      5353      5355
      5354      5353      5356      5355      5353      5356      5356      5358      5359
      5356      5358      5360      5357      5356      5358      5358      5360      5361
      5358      5360      5362      5358      5360      5363      5359      5358      5360
      5360      5363      5364      5360      5363      5365      5361      5360      5362
      5361      5360      5363      5362      5360      5363      5363      5365      5366
      5363      5365      5367      5364      5363      5365      5365      5367      5368
      5365      5367      5369      5365      5367      5370      5366      5365      5367
      5367      5370      5371      5367      5370      5372      5368      5367      5369
      5368      5367      5370      5369      5367      5370      5370      5372      5373
      5370      5372      5374      5371      5370      5372      5372      5374      5375
      5372      5374      5376      5372      5374      5377      5373      5372      5374
      5374      5377      5378      5374      5377      5379      5374      5377      5380
      5375      5374      5376      5375      5374      5377      5376      5374      5377
      5377      5380      5381      5377      5380      5382      5377      5380      5383
      5378      5377      5379      5378      5377      5380      5379      5377      5380
      5380      5383      5384      5380      5383      5385      5380      5383      5386
      5381      5380      5382      5381      5380      5383      5382      5380      5383
      5383      5386      5387      5383      5386      5388      5383      5386      5389
      5384      5383      5385      5384      5383      5386      5385      5383      5386
      5387      5386      5388      5387      5386      5389      5388      5386      5389
      5390      5393      5394      5390      5393      5395      5390      5393      5396
      5391      5390      5392      5391      5390      5393      5392      5390      5393
      5393      5396      5397      5393      5396      5398      5393      5396      5399
      5394      5393      5395      5394      5393      5396      5395      5393      5396
      5396      5399      5400      5396      5399      5401      5396      5399      5402
      5397      5396      5398      5397      5396      5399      5398      5396      5399
      5399      5402      5403      5399      5402      5404      5399      5402      5405
      5400      5399      5401      5400      5399      5402      5401      5399      5402
      5402      5405      5406      5402      5405      5407      5402      5405      5408
      5403      5402      5404      5403      5402      5405      5404      5402      5405
      5405      5408      5409      5405      5408      5410      5405      5408      5411
      5406      5405      5407      5406      5405      5408      5407      5405      5408
      5408      5411      5412      5408      5411      5413      5408      5411      5414
      5409      5408      5410      5409      5408      5411      5410      5408      5411
      5411      5414      5415      5411      5414      5416      5411      5414      5417
      5412      5411      5413      5412      5411      5414      5413      5411      5414
      5414      5417      5418      5414      5417      5419      5414      5417      5420
      5415      5414      5416      5415      5414      5417      5416      5414      5417
      5417      5420      5421      5417      5420      5422      5417      5420      5423
      5418      5417      5419      5418      5417      5420      5419      5417      5420
      5420      5423      5424      5420      5423      5425      5420      5423      5426
      5421      5420      5422      5421      5420      5423      5422      5420      5423
      5423      5426      5427      5423      5426      5428      5423      5426      5429
      5424      5423      5425      5424      5423      5426      5425      5423      5426
      5426      5429      5430      5426      5429      5431      5426      5429      5432
      5427      5426      5428      5427      5426      5429      5428      5426      5429
      5429      5432      5433      5429      5432      5434      5429      5432      5435
      5430      5429      5431      5430      5429      5432      5431      5429      5432
      5432      5435      5436      5432      5435      5437      5432      5435      5438
      5433      5432      5434      5433      5432      5435      5434      5432      5435
      5436      5435      5437      5436      5435      5438      5437      5435      5438
      5439      5441      5442      5439      5443      5444      5439      5443      5445
      5439      5443      5446      5439      5485      5482      5439      5485      5486
      5439      5485      5487      5440      5439      5441      5440      5439      5443
      5440      5439      5485      5441      5439      5443      5441      5439      5485
      5443      5439      5485      5443      5446      5447      5443      5446      5477
      5444      5443      5445      5444      5443      5446      5445      5443      5446
      5446      5447      5448      5446      5447      5449      5446      5477      5475
      5446      5477      5478      5446      5477      5482      5447      5446      5477
      5447      5449      5450      5447      5449      5451      5447      5449      5452
      5448      5447      5449      5449      5452      5453      5449      5452      5454
      5449      5452      5475      5450      5449      5451      5450      5449      5452
      5451      5449      5452      5452      5454      5455      5452      5454      5456
      5452      5454      5464      5452      5475      5472      5452      5475      5476
      5452      5475      5477      5453      5452      5454      5453      5452      5475
      5454      5452      5475      5454      5456      5457      5454      5456      5458
      5454      5456      5459      5454      5464      5462      5454      5464      5465
      5454      5464      5469      5455      5454      5456      5455      5454      5464
      5456      5454      5464      5456      5459      5460      5456      5459      5461
      5456      5459      5462      5457      5456      5458      5457      5456      5459
      5458      5456      5459      5459      5462      5463      5459      5462      5464
      5459      5462      5488      5460      5459      5461      5460      5459      5462
      5461      5459      5462      5462      5464      5465      5462      5464      5469
      5462      5488      5489      5462      5488      5490      5462      5488      5494
      5463      5462      5464      5463      5462      5488      5464      5462      5488
      5464      5465      5466      5464      5465      5467      5464      5465      5468
      5464      5469      5470      5464      5469      5471      5464      5469      5472
      5465      5464      5469      5466      5465      5467      5466      5465      5468
      5467      5465      5468      5469      5472      5473      5469      5472      5474
      5469      5472      5475      5470      5469      5471      5470      5469      5472
      5471      5469      5472      5472      5475      5476      5472      5475      5477
      5473      5472      5474      5473      5472      5475      5474      5472      5475
      5475      5477      5478      5475      5477      5482      5476      5475      5477
      5477      5478      5479      5477      5478      5480      5477      5478      5481
      5477      5482      5483      5477      5482      5484      5477      5482      5485
      5478      5477      5482      5479      5478      5480      5479      5478      5481
      5480      5478      5481      5482      5485      5486      5482      5485      5487
      5483      5482      5484      5483      5482      5485      5484      5482      5485
      5486      5485      5487      5488      5490      5491      5488      5490      5492
      5488      5490      5493      5488      5494      5495      5488      5494      5496
      5488      5494      5497      5489      5488      5490      5489      5488      5494
      5490      5488      5494      5491      5490      5492      5491      5490      5493
      5492      5490      5493      5494      5497      5498      5494      5497      5499
      5494      5497      5500      5495      5494      5496      5495      5494      5497
      5496      5494      5497      5497      5500      5501      5497      5500      5502
      5497      5500      5503      5498      5497      5499      5498      5497      5500
      5499      5497      5500      5500      5503      5504      5500      5503      5505
      5500      5503      5509      5501      5500      5502      5501      5500      5503
      5502      5500      5503      5503      5505      5506      5503      5505      5507
      5503      5505      5508      5503      5509      5510      5503      5509      5511
      5503      5509      5512      5504      5503      5505      5504      5503      5509
      5505      5503      5509      5506      5505      5507      5506      5505      5508
      5507      5505      5508      5510      5509      5511      5510      5509      5512
      5511      5509      5512      5513      5517      5518      5513      5517      5519
      5513      5517      5520      5514      5513      5515      5514      5513      5516
      5514      5513      5517      5515      5513      5516      5515      5513      5517
      5516      5513      5517      5517      5520      5521      5517      5520      5522
      5517      5520      5526      5518      5517      5519      5518      5517      5520
      5519      5517      5520      5520      5526      5523      5521      5520      5522
      5521      5520      5526      5522      5520      5526      5523      5527      5528
      5524      5523      5525      5524      5523      5526      5524      5523      5527
      5525      5523      5526      5525      5523      5527      5526      5523      5527
      5527      5528      5529      5527      5528      5530      5527      5528      5531
      5528      5531      5532      5528      5531      5533      5528      5531      5539
      5529      5528      5530      5529      5528      5531      5530      5528      5531
      5531      5533      5534      5531      5539      5540      5531      5539      5541
      5531      5539      5542      5532      5531      5533      5532      5531      5539
      5533      5531      5539      5533      5534      5535      5533      5534      5536
      5534      5536      5537      5534      5536      5538      5534      5536      5548
      5535      5534      5536      5536      5548      5549      5536      5548      5550
      5536      5548      5551      5537      5536      5538      5537      5536      5548
      5538      5536      5548      5539      5542      5543      5540      5539      5541
      5540      5539      5542      5541      5539      5542      5542      5543      5544
      5542      5543      5545      5543      5545      5546      5543      5545      5547
      5543      5545      5595      5544      5543      5545      5545      5595      5596
      5545      5595      5597      5545      5595      5598      5546      5545      5547
      5546      5545      5595      5547      5545      5595      5548      5551      5552
      5548      5551      5553      5548      5551      5554      5549      5548      5550
      5549      5548      5551      5550      5548      5551      5551      5554      5555
      5551      5554      5556      5552      5551      5553      5552      5551      5554
      5553      5551      5554      5554      5556      5557      5554      5556      5558
      5555      5554      5556      5556      5558      5559      5556      5558      5560
      5556      5558      5561      5557      5556      5558      5558      5561      5562
      5558      5561      5563      5559      5558      5560      5559      5558      5561
      5560      5558      5561      5561      5563      5564      5561      5563      5565
      5562      5561      5563      5563      5565      5566      5563      5565      5567
      5563      5565      5568      5564      5563      5565      5565      5568      5569
      5565      5568      5570      5566      5565      5567      5566      5565      5568
      5567      5565      5568      5568      5570      5571      5568      5570      5572
      5569      5568      5570      5570      5572      5573      5570      5572      5574
      5570      5572      5575      5571      5570      5572      5572      5575      5576
      5572      5575      5577      5573      5572      5574      5573      5572      5575
      5574      5572      5575      5575      5577      5578      5575      5577      5579
      5576      5575      5577      5577      5579      5580      5577      5579      5581
      5577      5579      5582      5578      5577      5579      5579      5582      5583
      5579      5582      5584      5579      5582      5585      5580      5579      5581
      5580      5579      5582      5581      5579      5582      5582      5585      5586
      5582      5585      5587      5582      5585      5588      5583      5582      5584
      5583      5582      5585      5584      5582      5585      5585      5588      5589
      5585      5588      5590      5585      5588      5591      5586      5585      5587
      5586      5585      5588      5587      5585      5588      5588      5591      5592
      5588      5591      5593      5588      5591      5594      5589      5588      5590
      5589      5588      5591      5590      5588      5591      5592      5591      5593
      5592      5591      5594      5593      5591      5594      5595      5598      5599
      5595      5598      5600      5595      5598      5601      5596      5595      5597
      5596      5595      5598      5597      5595      5598      5598      5601      5602
      5598      5601      5603      5598      5601      5604      5599      5598      5600
      5599      5598      5601      5600      5598      5601      5601      5604      5605
      5601      5604      5606      5601      5604      5607      5602      5601      5603
      5602      5601      5604      5603      5601      5604      5604      5607      5608
      5604      5607      5609      5604      5607      5610      5605      5604      5606
      5605      5604      5607      5606      5604      5607      5607      5610      5611
      5607      5610      5612      5607      5610      5613      5608      5607      5609
      5608      5607      5610      5609      5607      5610      5610      5613      5614
      5610      5613      5615      5610      5613      5616      5611      5610      5612
      5611      5610      5613      5612      5610      5613      5613      5616      5617
      5613      5616      5618      5613      5616      5619      5614      5613      5615
      5614      5613      5616      5615      5613      5616      5616      5619      5620
      5616      5619      5621      5616      5619      5622      5617      5616      5618
      5617      5616      5619      5618      5616      5619      5619      5622      5623
      5619      5622      5624      5619      5622      5625      5620      5619      5621
      5620      5619      5622      5621      5619      5622      5622      5625      5626
      5622      5625      5627      5622      5625      5628      5623      5622      5624
      5623      5622      5625      5624      5622      5625      5625      5628      5629
      5625      5628      5630      5625      5628      5631      5626      5625      5627
      5626      5625      5628      5627      5625      5628      5628      5631      5632
      5628      5631      5633      5628      5631      5634      5629      5628      5630
      5629      5628      5631      5630      5628      5631      5631      5634      5635
      5631      5634      5636      5631      5634      5637      5632      5631      5633
      5632      5631      5634      5633      5631      5634      5634      5637      5638
      5634      5637      5639      5634      5637      5640      5635      5634      5636
      5635      5634      5637      5636      5634      5637      5637      5640      5641
      5637      5640      5642      5637      5640      5643      5638      5637      5639
      5638      5637      5640      5639      5637      5640      5641      5640      5642
      5641      5640      5643      5642      5640      5643      5644      5645      5646
      5644      5645      5647      5644      5645      5648      5644      5649      5650
      5644      5649      5651      5644      5649      5652      5644      5653      5654
      5644      5653      5655      5644      5653      5656      5644      5657      5658
      5644      5657      5659      5644      5657      5660      5645      5644      5649
      5645      5644      5653      5645      5644      5657      5646      5645      5647
      5646      5645      5648      5647      5645      5648      5649      5644      5653
      5649      5644      5657      5650      5649      5651      5650      5649      5652
      5651      5649      5652      5653      5644      5657      5654      5653      5655
      5654      5653      5656      5655      5653      5656      5657      5660      5661
      5657      5660      5662      5657      5660      5667      5658      5657      5659
      5658      5657      5660      5659      5657      5660      5660      5667      5663
      5661      5660      5662      5661      5660      5667      5662      5660      5667
      5663      5666      5668      5664      5663      5665      5664      5663      5666
      5664      5663      5667      5665      5663      5666      5665      5663      5667
      5666      5663      5667      5666      5668      5669      5666      5668      5670
      5666      5668      5673      5668      5673      5671      5668      5673      5674
      5668      5673      5675      5669      5668      5670      5669      5668      5673
      5670      5668      5673      5671      5673      5674      5671      5673      5675
      5671      5723      5724      5671      5723      5725      5672      5671      5673
      5672      5671      5723      5673      5671      5723      5673      5675      5676
      5673      5675      5677      5673      5675      5679      5674      5673      5675
      5675      5677      5678      5675      5679      5680      5675      5679      5681
      5676      5675      5677      5676      5675      5679      5677      5675      5679
      5679      5681      5682      5679      5681      5683      5680      5679      5681
      5681      5683      5684      5681      5683      5685      5681      5683      5686
      5682      5681      5683      5683      5686      5687      5683      5686      5688
      5683      5686      5689      5684      5683      5685      5684      5683      5686
      5685      5683      5686      5686      5689      5690      5686      5689      5691
      5686      5689      5692      5687      5686      5688      5687      5686      5689
      5688      5686      5689      5689      5692      5693      5689      5692      5694
      5689      5692      5695      5690      5689      5691      5690      5689      5692
      5691      5689      5692      5692      5695      5696      5692      5695      5697
      5692      5695      5698      5693      5692      5694      5693      5692      5695
      5694      5692      5695      5695      5698      5699      5695      5698      5700
      5695      5698      5701      5696      5695      5697      5696      5695      5698
      5697      5695      5698      5698      5701      5702      5698      5701      5703
      5698      5701      5704      5699      5698      5700      5699      5698      5701
      5700      5698      5701      5701      5704      5705      5701      5704      5706
      5701      5704      5707      5702      5701      5703      5702      5701      5704
      5703      5701      5704      5704      5707      5708      5704      5707      5709
      5704      5707      5710      5705      5704      5706      5705      5704      5707
      5706      5704      5707      5707      5710      5711      5707      5710      5712
      5707      5710      5713      5708      5707      5709      5708      5707      5710
      5709      5707      5710      5710      5713      5714      5710      5713      5715
      5710      5713      5716      5711      5710      5712      5711      5710      5713
      5712      5710      5713      5713      5716      5717      5713      5716      5718
      5713      5716      5719      5714      5713      5715      5714      5713      5716
      5715      5713      5716      5716      5719      5720      5716      5719      5721
      5716      5719      5722      5717      5716      5718      5717      5716      5719
      5718      5716      5719      5720      5719      5721      5720      5719      5722
      5721      5719      5722      5723      5725      5726      5723      5725      5727
      5723      5725      5728      5724      5723      5725      5725      5728      5729
      5725      5728      5730      5725      5728      5731      5726      5725      5727
      5726      5725      5728      5727      5725      5728      5728      5731      5732
      5728      5731      5733      5728      5731      5734      5729      5728      5730
      5729      5728      5731      5730      5728      5731      5731      5734      5735
      5731      5734      5736      5731      5734      5737      5732      5731      5733
      5732      5731      5734      5733      5731      5734      5734      5737      5738
      5734      5737      5739      5734      5737      5740      5735      5734      5736
      5735      5734      5737      5736      5734      5737      5737      5740      5741
      5737      5740      5742      5737      5740      5743      5738      5737      5739
      5738      5737      5740      5739      5737      5740      5740      5743      5744
      5740      5743      5745      5740      5743      5746      5741      5740      5742
      5741      5740      5743      5742      5740      5743      5743      5746      5747
      5743      5746      5748      5744      5743      5745      5744      5743      5746
      5745      5743      5746      5746      5748      5749      5746      5748      5750
      5747      5746      5748      5748      5750      5751      5748      5750      5752
      5748      5750      5753      5749      5748      5750      5750      5753      5754
      5750      5753      5755      5750      5753      5756      5751      5750      5752
      5751      5750      5753      5752      5750      5753      5753      5756      5757
      5753      5756      5758      5753      5756      5759      5754      5753      5755
      5754      5753      5756      5755      5753      5756      5756      5759      5760
      5756      5759      5761      5756      5759      5762      5757      5756      5758
      5757      5756      5759      5758      5756      5759      5759      5762      5763
      5759      5762      5764      5759      5762      5765      5760      5759      5761
      5760      5759      5762      5761      5759      5762      5762      5765      5766
      5762      5765      5767      5762      5765      5768      5763      5762      5764
      5763      5762      5765      5764      5762      5765      5765      5768      5769
      5765      5768      5770      5765      5768      5771      5766      5765      5767
      5766      5765      5768      5767      5765      5768      5768      5771      5772
      5768      5771      5773      5768      5771      5774      5769      5768      5770
      5769      5768      5771      5770      5768      5771      5772      5771      5773
      5772      5771      5774      5773      5771      5774      5775      5776      5777
      5775      5776      5778      5775      5776      5779      5775      5780      5781
      5775      5780      5782      5775      5780      5783      5775      5784      5785
      5775      5784      5786      5775      5784      5787      5775      5788      5789
      5775      5788      5790      5775      5788      5791      5776      5775      5780
      5776      5775      5784      5776      5775      5788      5777      5776      5778
      5777      5776      5779      5778      5776      5779      5780      5775      5784
      5780      5775      5788      5781      5780      5782      5781      5780      5783
      5782      5780      5783      5784      5775      5788      5785      5784      5786
      5785      5784      5787      5786      5784      5787      5788      5791      5792
      5788      5791      5793      5788      5791      5797      5789      5788      5790
      5789      5788      5791      5790      5788      5791      5791      5797      5794
      5792      5791      5793      5792      5791      5797      5793      5791      5797
      5794      5798      5799      5795      5794      5796      5795      5794      5797
      5795      5794      5798      5796      5794      5797      5796      5794      5798
      5797      5794      5798      5798      5799      5800      5798      5799      5801
      5798      5799      5802      5799      5802      5803      5799      5802      5804
      5799      5802      5810      5800      5799      5801      5800      5799      5802
      5801      5799      5802      5802      5804      5805      5802      5810      5811
      5802      5810      5812      5802      5810      5813      5803      5802      5804
      5803      5802      5810      5804      5802      5810      5804      5805      5806
      5804      5805      5807      5805      5807      5808      5805      5807      5809
      5805      5807      5819      5806      5805      5807      5807      5819      5820
      5807      5819      5821      5807      5819      5822      5808      5807      5809
      5808      5807      5819      5809      5807      5819      5810      5813      5814
      5811      5810      5812      5811      5810      5813      5812      5810      5813
      5813      5814      5815      5813      5814      5816      5814      5816      5817
      5814      5816      5818      5814      5816      5864      5815      5814      5816
      5816      5864      5865      5816      5864      5866      5816      5864      5867
      5817      5816      5818      5817      5816      5864      5818      5816      5864
      5819      5822      5823      5819      5822      5824      5819      5822      5825
      5820      5819      5821      5820      5819      5822      5821      5819      5822
      5822      5825      5826      5822      5825      5827      5822      5825      5828
      5823      5822      5824      5823      5822      5825      5824      5822      5825
      5825      5828      5829      5825      5828      5830      5825      5828      5831
      5826      5825      5827      5826      5825      5828      5827      5825      5828
      5828      5831      5832      5828      5831      5833      5828      5831      5834
      5829      5828      5830      5829      5828      5831      5830      5828      5831
      5831      5834      5835      5831      5834      5836      5831      5834      5837
      5832      5831      5833      5832      5831      5834      5833      5831      5834
      5834      5837      5838      5834      5837      5839      5835      5834      5836
      5835      5834      5837      5836      5834      5837      5837      5839      5840
      5837      5839      5841      5838      5837      5839      5839      5841      5842
      5839      5841      5843      5839      5841      5844      5840      5839      5841
      5841      5844      5845      5841      5844      5846      5842      5841      5843
      5842      5841      5844      5843      5841      5844      5844      5846      5847
      5844      5846      5848      5845      5844      5846      5846      5848      5849
      5846      5848      5850      5846      5848      5851      5847      5846      5848
      5848      5851      5852      5848      5851      5853      5848      5851      5854
      5849      5848      5850      5849      5848      5851      5850      5848      5851
      5851      5854      5855      5851      5854      5856      5851      5854      5857
      5852      5851      5853      5852      5851      5854      5853      5851      5854
      5854      5857      5858      5854      5857      5859      5854      5857      5860
      5855      5854      5856      5855      5854      5857      5856      5854      5857
      5857      5860      5861      5857      5860      5862      5857      5860      5863
      5858      5857      5859      5858      5857      5860      5859      5857      5860
      5861      5860      5862      5861      5860      5863      5862      5860      5863
      5864      5867      5868      5864      5867      5869      5864      5867      5870
      5865      5864      5866      5865      5864      5867      5866      5864      5867
      5867      5870      5871      5867      5870      5872      5867      5870      5873
      5868      5867      5869      5868      5867      5870      5869      5867      5870
      5870      5873      5874      5870      5873      5875      5870      5873      5876
      5871      5870      5872      5871      5870      5873      5872      5870      5873
      5873      5876      5877      5873      5876      5878      5873      5876      5879
      5874      5873      5875      5874      5873      5876      5875      5873      5876
      5876      5879      5880      5876      5879      5881      5876      5879      5882
      5877      5876      5878      5877      5876      5879      5878      5876      5879
      5879      5882      5883      5879      5882      5884      5879      5882      5885
      5880      5879      5881      5880      5879      5882      5881      5879      5882
      5882      5885      5886      5882      5885      5887      5882      5885      5888
      5883      5882      5884      5883      5882      5885      5884      5882      5885
      5885      5888      5889      5885      5888      5890      5885      5888      5891
      5886      5885      5887      5886      5885      5888      5887      5885      5888
      5888      5891      5892      5888      5891      5893      5888      5891      5894
      5889      5888      5890      5889      5888      5891      5890      5888      5891
      5891      5894      5895      5891      5894      5896      5891      5894      5897
      5892      5891      5893      5892      5891      5894      5893      5891      5894
      5894      5897      5898      5894      5897      5899      5894      5897      5900
      5895      5894      5896      5895      5894      5897      5896      5894      5897
      5897      5900      5901      5897      5900      5902      5897      5900      5903
      5898      5897      5899      5898      5897      5900      5899      5897      5900
      5900      5903      5904      5900      5903      5905      5900      5903      5906
      5901      5900      5902      5901      5900      5903      5902      5900      5903
      5903      5906      5907      5903      5906      5908      5903      5906      5909
      5904      5903      5905      5904      5903      5906      5905      5903      5906
      5906      5909      5910      5906      5909      5911      5906      5909      5912
      5907      5906      5908      5907      5906      5909      5908      5906      5909
      5910      5909      5911      5910      5909      5912      5911      5909      5912
      5913      5915      5916      5913      5917      5918      5913      5917      5919
      5913      5917      5920      5913      5959      5956      5913      5959      5960
      5913      5959      5961      5914      5913      5915      5914      5913      5917
      5914      5913      5959      5915      5913      5917      5915      5913      5959
      5917      5913      5959      5917      5920      5921      5917      5920      5951
      5918      5917      5919      5918      5917      5920      5919      5917      5920
      5920      5921      5922      5920      5921      5923      5920      5951      5949
      5920      5951      5952      5920      5951      5956      5921      5920      5951
      5921      5923      5924      5921      5923      5925      5921      5923      5926
      5922      5921      5923      5923      5926      5927      5923      5926      5928
      5923      5926      5949      5924      5923      5925      5924      5923      5926
      5925      5923      5926      5926      5928      5929      5926      5928      5930
      5926      5928      5938      5926      5949      5946      5926      5949      5950
      5926      5949      5951      5927      5926      5928      5927      5926      5949
      5928      5926      5949      5928      5930      5931      5928      5930      5932
      5928      5930      5933      5928      5938      5936      5928      5938      5939
      5928      5938      5943      5929      5928      5930      5929      5928      5938
      5930      5928      5938      5930      5933      5934      5930      5933      5935
      5930      5933      5936      5931      5930      5932      5931      5930      5933
      5932      5930      5933      5933      5936      5937      5933      5936      5938
      5933      5936      5962      5934      5933      5935      5934      5933      5936
      5935      5933      5936      5936      5938      5939      5936      5938      5943
      5936      5962      5963      5936      5962      5964      5936      5962      5968
      5937      5936      5938      5937      5936      5962      5938      5936      5962
      5938      5939      5940      5938      5939      5941      5938      5939      5942
      5938      5943      5944      5938      5943      5945      5938      5943      5946
      5939      5938      5943      5940      5939      5941      5940      5939      5942
      5941      5939      5942      5943      5946      5947      5943      5946      5948
      5943      5946      5949      5944      5943      5945      5944      5943      5946
      5945      5943      5946      5946      5949      5950      5946      5949      5951
      5947      5946      5948      5947      5946      5949      5948      5946      5949
      5949      5951      5952      5949      5951      5956      5950      5949      5951
      5951      5952      5953      5951      5952      5954      5951      5952      5955
      5951      5956      5957      5951      5956      5958      5951      5956      5959
      5952      5951      5956      5953      5952      5954      5953      5952      5955
      5954      5952      5955      5956      5959      5960      5956      5959      5961
      5957      5956      5958      5957      5956      5959      5958      5956      5959
      5960      5959      5961      5962      5964      5965      5962      5964      5966
      5962      5964      5967      5962      5968      5969      5962      5968      5970
      5962      5968      5971      5963      5962      5964      5963      5962      5968
      5964      5962      5968      5965      5964      5966      5965      5964      5967
      5966      5964      5967      5968      5971      5972      5968      5971      5973
      5968      5971      5974      5969      5968      5970      5969      5968      5971
      5970      5968      5971      5971      5974      5975      5971      5974      5976
      5971      5974      5977      5972      5971      5973      5972      5971      5974
      5973      5971      5974      5974      5977      5978      5974      5977      5979
      5974      5977      5983      5975      5974      5976      5975      5974      5977
      5976      5974      5977      5977      5979      5980      5977      5979      5981
      5977      5979      5982      5977      5983      5984      5977      5983      5985
      5977      5983      5986      5978      5977      5979      5978      5977      5983
      5979      5977      5983      5980      5979      5981      5980      5979      5982
      5981      5979      5982      5984      5983      5985      5984      5983      5986
      5985      5983      5986      5987      5988      5989      5987      5988      5990
      5987      5988      6003      5987      5991      5992      5987      5991      5993
      5987      5991      5994      5987      5995      5996      5987      5995      5997
      5987      5995      5998      5987      5999      6000      5987      5999      6001
      5987      5999      6002      5988      5987      5991      5988      5987      5995
      5988      5987      5999      5988      6003      6004      5988      6003      6005
      5988      6003      6009      5989      5988      5990      5989      5988      6003
      5990      5988      6003      5991      5987      5995      5991      5987      5999
      5992      5991      5993      5992      5991      5994      5993      5991      5994
      5995      5987      5999      5996      5995      5997      5996      5995      5998
      5997      5995      5998      6000      5999      6001      6000      5999      6002
      6001      5999      6002      6003      6009      6006      6004      6003      6005
      6004      6003      6009      6005      6003      6009      6006      6010      6011
      6007      6006      6008      6007      6006      6009      6007      6006      6010
      6008      6006      6009      6008      6006      6010      6009      6006      6010
      6010      6011      6012      6010      6011      6013      6010      6011      6014
      6011      6014      6015      6011      6014      6016      6011      6014      6022
      6012      6011      6013      6012      6011      6014      6013      6011      6014
      6014      6016      6017      6014      6022      6023      6014      6022      6024
      6014      6022      6025      6015      6014      6016      6015      6014      6022
      6016      6014      6022      6016      6017      6018      6016      6017      6019
      6017      6019      6020      6017      6019      6021      6017      6019      6031
      6018      6017      6019      6019      6031      6032      6019      6031      6033
      6019      6031      6034      6020      6019      6021      6020      6019      6031
      6021      6019      6031      6022      6025      6026      6023      6022      6024
      6023      6022      6025      6024      6022      6025      6025      6026      6027
      6025      6026      6028      6026      6028      6029      6026      6028      6030
      6026      6028      6078      6027      6026      6028      6028      6078      6079
      6028      6078      6080      6028      6078      6081      6029      6028      6030
      6029      6028      6078      6030      6028      6078      6031      6034      6035
      6031      6034      6036      6031      6034      6037      6032      6031      6033
      6032      6031      6034      6033      6031      6034      6034      6037      6038
      6034      6037      6039      6035      6034      6036      6035      6034      6037
      6036      6034      6037      6037      6039      6040      6037      6039      6041
      6038      6037      6039      6039      6041      6042      6039      6041      6043
      6039      6041      6044      6040      6039      6041      6041      6044      6045
      6041      6044      6046      6042      6041      6043      6042      6041      6044
      6043      6041      6044      6044      6046      6047      6044      6046      6048
      6045      6044      6046      6046      6048      6049      6046      6048      6050
      6046      6048      6051      6047      6046      6048      6048      6051      6052
      6048      6051      6053      6049      6048      6050      6049      6048      6051
      6050      6048      6051      6051      6053      6054      6051      6053      6055
      6052      6051      6053      6053      6055      6056      6053      6055      6057
      6053      6055      6058      6054      6053      6055      6055      6058      6059
      6055      6058      6060      6056      6055      6057      6056      6055      6058
      6057      6055      6058      6058      6060      6061      6058      6060      6062
      6059      6058      6060      6060      6062      6063      6060      6062      6064
      6060      6062      6065      6061      6060      6062      6062      6065      6066
      6062      6065      6067      6062      6065      6068      6063      6062      6064
      6063      6062      6065      6064      6062      6065      6065      6068      6069
      6065      6068      6070      6065      6068      6071      6066      6065      6067
      6066      6065      6068      6067      6065      6068      6068      6071      6072
      6068      6071      6073      6068      6071      6074      6069      6068      6070
      6069      6068      6071      6070      6068      6071      6071      6074      6075
      6071      6074      6076      6071      6074      6077      6072      6071      6073
      6072      6071      6074      6073      6071      6074      6075      6074      6076
      6075      6074      6077      6076      6074      6077      6078      6081      6082
      6078      6081      6083      6078      6081      6084      6079      6078      6080
      6079      6078      6081      6080      6078      6081      6081      6084      6085
      6081      6084      6086      6081      6084      6087      6082      6081      6083
      6082      6081      6084      6083      6081      6084      6084      6087      6088
      6084      6087      6089      6084      6087      6090      6085      6084      6086
      6085      6084      6087      6086      6084      6087      6087      6090      6091
      6087      6090      6092      6087      6090      6093      6088      6087      6089
      6088      6087      6090      6089      6087      6090      6090      6093      6094
      6090      6093      6095      6090      6093      6096      6091      6090      6092
      6091      6090      6093      6092      6090      6093      6093      6096      6097
      6093      6096      6098      6093      6096      6099      6094      6093      6095
      6094      6093      6096      6095      6093      6096      6096      6099      6100
      6096      6099      6101      6096      6099      6102      6097      6096      6098
      6097      6096      6099      6098      6096      6099      6099      6102      6103
      6099      6102      6104      6099      6102      6105      6100      6099      6101
      6100      6099      6102      6101      6099      6102      6102      6105      6106
      6102      6105      6107      6102      6105      6108      6103      6102      6104
      6103      6102      6105      6104      6102      6105      6105      6108      6109
      6105      6108      6110      6105      6108      6111      6106      6105      6107
      6106      6105      6108      6107      6105      6108      6108      6111      6112
      6108      6111      6113      6108      6111      6114      6109      6108      6110
      6109      6108      6111      6110      6108      6111      6111      6114      6115
      6111      6114      6116      6111      6114      6117      6112      6111      6113
      6112      6111      6114      6113      6111      6114      6114      6117      6118
      6114      6117      6119      6114      6117      6120      6115      6114      6116
      6115      6114      6117      6116      6114      6117      6117      6120      6121
      6117      6120      6122      6117      6120      6123      6118      6117      6119
      6118      6117      6120      6119      6117      6120      6120      6123      6124
      6120      6123      6125      6120      6123      6126      6121      6120      6122
      6121      6120      6123      6122      6120      6123      6124      6123      6125
      6124      6123      6126      6125      6123      6126      6127      6131      6132
      6127      6131      6133      6127      6131      6136      6128      6127      6129
      6128      6127      6130      6128      6127      6131      6129      6127      6130
      6129      6127      6131      6130      6127      6131      6131      6133      6134
      6131      6133      6135      6131      6136      6137      6131      6136      6138
      6131      6136      6142      6132      6131      6133      6132      6131      6136
      6133      6131      6136      6134      6133      6135      6136      6142      6139
      6137      6136      6138      6137      6136      6142      6138      6136      6142
      6139      6143      6144      6140      6139      6141      6140      6139      6142
      6140      6139      6143      6141      6139      6142      6141      6139      6143
      6142      6139      6143      6143      6144      6145      6143      6144      6146
      6143      6144      6147      6144      6147      6148      6144      6147      6149
      6144      6147      6155      6145      6144      6146      6145      6144      6147
      6146      6144      6147      6147      6149      6150      6147      6155      6156
      6147      6155      6157      6147      6155      6158      6148      6147      6149
      6148      6147      6155      6149      6147      6155      6149      6150      6151
      6149      6150      6152      6150      6152      6153      6150      6152      6154
      6150      6152      6164      6151      6150      6152      6152      6164      6165
      6152      6164      6166      6152      6164      6167      6153      6152      6154
      6153      6152      6164      6154      6152      6164      6155      6158      6159
      6156      6155      6157      6156      6155      6158      6157      6155      6158
      6158      6159      6160      6158      6159      6161      6159      6161      6162
      6159      6161      6163      6159      6161      6211      6160      6159      6161
      6161      6211      6212      6161      6211      6213      6161      6211      6214
      6162      6161      6163      6162      6161      6211      6163      6161      6211
      6164      6167      6168      6164      6167      6169      6164      6167      6170
      6165      6164      6166      6165      6164      6167      6166      6164      6167
      6167      6170      6171      6167      6170      6172      6168      6167      6169
      6168      6167      6170      6169      6167      6170      6170      6172      6173
      6170      6172      6174      6171      6170      6172      6172      6174      6175
      6172      6174      6176      6172      6174      6177      6173      6172      6174
      6174      6177      6178      6174      6177      6179      6175      6174      6176
      6175      6174      6177      6176      6174      6177      6177      6179      6180
      6177      6179      6181      6178      6177      6179      6179      6181      6182
      6179      6181      6183      6179      6181      6184      6180      6179      6181
      6181      6184      6185      6181      6184      6186      6182      6181      6183
      6182      6181      6184      6183      6181      6184      6184      6186      6187
      6184      6186      6188      6185      6184      6186      6186      6188      6189
      6186      6188      6190      6186      6188      6191      6187      6186      6188
      6188      6191      6192      6188      6191      6193      6189      6188      6190
      6189      6188      6191      6190      6188      6191      6191      6193      6194
      6191      6193      6195      6192      6191      6193      6193      6195      6196
      6193      6195      6197      6193      6195      6198      6194      6193      6195
      6195      6198      6199      6195      6198      6200      6195      6198      6201
      6196      6195      6197      6196      6195      6198      6197      6195      6198
      6198      6201      6202      6198      6201      6203      6198      6201      6204
      6199      6198      6200      6199      6198      6201      6200      6198      6201
      6201      6204      6205      6201      6204      6206      6201      6204      6207
      6202      6201      6203      6202      6201      6204      6203      6201      6204
      6204      6207      6208      6204      6207      6209      6204      6207      6210
      6205      6204      6206      6205      6204      6207      6206      6204      6207
      6208      6207      6209      6208      6207      6210      6209      6207      6210
      6211      6214      6215      6211      6214      6216      6211      6214      6217
      6212      6211      6213      6212      6211      6214      6213      6211      6214
      6214      6217      6218      6214      6217      6219      6214      6217      6220
      6215      6214      6216      6215      6214      6217      6216      6214      6217
      6217      6220      6221      6217      6220      6222      6217      6220      6223
      6218      6217      6219      6218      6217      6220      6219      6217      6220
      6220      6223      6224      6220      6223      6225      6220      6223      6226
      6221      6220      6222      6221      6220      6223      6222      6220      6223
      6223      6226      6227      6223      6226      6228      6223      6226      6229
      6224      6223      6225      6224      6223      6226      6225      6223      6226
      6226      6229      6230      6226      6229      6231      6226      6229      6232
      6227      6226      6228      6227      6226      6229      6228      6226      6229
      6229      6232      6233      6229      6232      6234      6229      6232      6235
      6230      6229      6231      6230      6229      6232      6231      6229      6232
      6232      6235      6236      6232      6235      6237      6232      6235      6238
      6233      6232      6234      6233      6232      6235      6234      6232      6235
      6235      6238      6239      6235      6238      6240      6235      6238      6241
      6236      6235      6237      6236      6235      6238      6237      6235      6238
      6238      6241      6242      6238      6241      6243      6238      6241      6244
      6239      6238      6240      6239      6238      6241      6240      6238      6241
      6241      6244      6245      6241      6244      6246      6241      6244      6247
      6242      6241      6243      6242      6241      6244      6243      6241      6244
      6244      6247      6248      6244      6247      6249      6244      6247      6250
      6245      6244      6246      6245      6244      6247      6246      6244      6247
      6247      6250      6251      6247      6250      6252      6247      6250      6253
      6248      6247      6249      6248      6247      6250      6249      6247      6250
      6250      6253      6254      6250      6253      6255      6250      6253      6256
      6251      6250      6252      6251      6250      6253      6252      6250      6253
      6253      6256      6257      6253      6256      6258      6253      6256      6259
      6254      6253      6255      6254      6253      6256      6255      6253      6256
      6257      6256      6258      6257      6256      6259      6258      6256      6259
      6260      6261      6262      6260      6261      6263      6260      6261      6264
      6260      6265      6266      6260      6265      6267      6260      6265      6268
      6260      6269      6270      6260      6269      6271      6260      6269      6272
      6260      6273      6274      6260      6273      6275      6260      6273      6276
      6261      6260      6265      6261      6260      6269      6261      6260      6273
      6262      6261      6263      6262      6261      6264      6263      6261      6264
      6265      6260      6269      6265      6260      6273      6266      6265      6267
      6266      6265      6268      6267      6265      6268      6269      6260      6273
      6270      6269      6271      6270      6269      6272      6271      6269      6272
      6273      6276      6277      6273      6276      6278      6273      6276      6282
      6274      6273      6275      6274      6273      6276      6275      6273      6276
      6276      6282      6279      6277      6276      6278      6277      6276      6282
      6278      6276      6282      6279      6283      6284      6280      6279      6281
      6280      6279      6282      6280      6279      6283      6281      6279      6282
      6281      6279      6283      6282      6279      6283      6283      6284      6285
      6283      6284      6286      6283      6284      6287      6284      6287      6288
      6284      6287      6289      6284      6287      6295      6285      6284      6286
      6285      6284      6287      6286      6284      6287      6287      6289      6290
      6287      6295      6296      6287      6295      6297      6287      6295      6298
      6288      6287      6289      6288      6287      6295      6289      6287      6295
      6289      6290      6291      6289      6290      6292      6290      6292      6293
      6290      6292      6294      6290      6292      6304      6291      6290      6292
      6292      6304      6305      6292      6304      6306      6292      6304      6307
      6293      6292      6294      6293      6292      6304      6294      6292      6304
      6295      6298      6299      6296      6295      6297      6296      6295      6298
      6297      6295      6298      6298      6299      6300      6298      6299      6301
      6299      6301      6302      6299      6301      6303      6299      6301      6349
      6300      6299      6301      6301      6349      6350      6301      6349      6351
      6301      6349      6352      6302      6301      6303      6302      6301      6349
      6303      6301      6349      6304      6307      6308      6304      6307      6309
      6304      6307      6310      6305      6304      6306      6305      6304      6307
      6306      6304      6307      6307      6310      6311      6307      6310      6312
      6307      6310      6313      6308      6307      6309      6308      6307      6310
      6309      6307      6310      6310      6313      6314      6310      6313      6315
      6310      6313      6316      6311      6310      6312      6311      6310      6313
      6312      6310      6313      6313      6316      6317      6313      6316      6318
      6313      6316      6319      6314      6313      6315      6314      6313      6316
      6315      6313      6316      6316      6319      6320      6316      6319      6321
      6316      6319      6322      6317      6316      6318      6317      6316      6319
      6318      6316      6319      6319      6322      6323      6319      6322      6324
      6320      6319      6321      6320      6319      6322      6321      6319      6322
      6322      6324      6325      6322      6324      6326      6323      6322      6324
      6324      6326      6327      6324      6326      6328      6324      6326      6329
      6325      6324      6326      6326      6329      6330      6326      6329      6331
      6327      6326      6328      6327      6326      6329      6328      6326      6329
      6329      6331      6332      6329      6331      6333      6330      6329      6331
      6331      6333      6334      6331      6333      6335      6331      6333      6336
      6332      6331      6333      6333      6336      6337      6333      6336      6338
      6333      6336      6339      6334      6333      6335      6334      6333      6336
      6335      6333      6336      6336      6339      6340      6336      6339      6341
      6336      6339      6342      6337      6336      6338      6337      6336      6339
      6338      6336      6339      6339      6342      6343      6339      6342      6344
      6339      6342      6345      6340      6339      6341      6340      6339      6342
      6341      6339      6342      6342      6345      6346      6342      6345      6347
      6342      6345      6348      6343      6342      6344      6343      6342      6345
      6344      6342      6345      6346      6345      6347      6346      6345      6348
      6347      6345      6348      6349      6352      6353      6349      6352      6354
      6349      6352      6355      6350      6349      6351      6350      6349      6352
      6351      6349      6352      6352      6355      6356      6352      6355      6357
      6352      6355      6358      6353      6352      6354      6353      6352      6355
      6354      6352      6355      6355      6358      6359      6355      6358      6360
      6355      6358      6361      6356      6355      6357      6356      6355      6358
      6357      6355      6358      6358      6361      6362      6358      6361      6363
      6358      6361      6364      6359      6358      6360      6359      6358      6361
      6360      6358      6361      6361      6364      6365      6361      6364      6366
      6361      6364      6367      6362      6361      6363      6362      6361      6364
      6363      6361      6364      6364      6367      6368      6364      6367      6369
      6364      6367      6370      6365      6364      6366      6365      6364      6367
      6366      6364      6367      6367      6370      6371      6367      6370      6372
      6367      6370      6373      6368      6367      6369      6368      6367      6370
      6369      6367      6370      6370      6373      6374      6370      6373      6375
      6370      6373      6376      6371      6370      6372      6371      6370      6373
      6372      6370      6373      6373      6376      6377      6373      6376      6378
      6373      6376      6379      6374      6373      6375      6374      6373      6376
      6375      6373      6376      6376      6379      6380      6376      6379      6381
      6376      6379      6382      6377      6376      6378      6377      6376      6379
      6378      6376      6379      6379      6382      6383      6379      6382      6384
      6379      6382      6385      6380      6379      6381      6380      6379      6382
      6381      6379      6382      6382      6385      6386      6382      6385      6387
      6382      6385      6388      6383      6382      6384      6383      6382      6385
      6384      6382      6385      6385      6388      6389      6385      6388      6390
      6385      6388      6391      6386      6385      6387      6386      6385      6388
      6387      6385      6388      6388      6391      6392      6388      6391      6393
      6388      6391      6394      6389      6388      6390      6389      6388      6391
      6390      6388      6391      6391      6394      6395      6391      6394      6396
      6391      6394      6397      6392      6391      6393      6392      6391      6394
      6393      6391      6394      6395      6394      6396      6395      6394      6397
      6396      6394      6397      6398      6402      6403      6398      6402      6404
      6398      6402      6405      6399      6398      6400      6399      6398      6401
      6399      6398      6402      6400      6398      6401      6400      6398      6402
      6401      6398      6402      6402      6405      6406      6402      6405      6407
      6402      6405      6411      6403      6402      6404      6403      6402      6405
      6404      6402      6405      6405      6411      6408      6406      6405      6407
      6406      6405      6411      6407      6405      6411      6408      6412      6413
      6409      6408      6410      6409      6408      6411      6409      6408      6412
      6410      6408      6411      6410      6408      6412      6411      6408      6412
      6412      6413      6414      6412      6413      6415      6412      6413      6416
      6413      6416      6417      6413      6416      6418      6413      6416      6424
      6414      6413      6415      6414      6413      6416      6415      6413      6416
      6416      6418      6419      6416      6424      6425      6416      6424      6426
      6416      6424      6427      6417      6416      6418      6417      6416      6424
      6418      6416      6424      6418      6419      6420      6418      6419      6421
      6419      6421      6422      6419      6421      6423      6419      6421      6433
      6420      6419      6421      6421      6433      6434      6421      6433      6435
      6421      6433      6436      6422      6421      6423      6422      6421      6433
      6423      6421      6433      6424      6427      6428      6425      6424      6426
      6425      6424      6427      6426      6424      6427      6427      6428      6429
      6427      6428      6430      6428      6430      6431      6428      6430      6432
      6428      6430      6480      6429      6428      6430      6430      6480      6481
      6430      6480      6482      6430      6480      6483      6431      6430      6432
      6431      6430      6480      6432      6430      6480      6433      6436      6437
      6433      6436      6438      6433      6436      6439      6434      6433      6435
      6434      6433      6436      6435      6433      6436      6436      6439      6440
      6436      6439      6441      6436      6439      6442      6437      6436      6438
      6437      6436      6439      6438      6436      6439      6439      6442      6443
      6439      6442      6444      6439      6442      6445      6440      6439      6441
      6440      6439      6442      6441      6439      6442      6442      6445      6446
      6442      6445      6447      6442      6445      6448      6443      6442      6444
      6443      6442      6445      6444      6442      6445      6445      6448      6449
      6445      6448      6450      6445      6448      6451      6446      6445      6447
      6446      6445      6448      6447      6445      6448      6448      6451      6452
      6448      6451      6453      6449      6448      6450      6449      6448      6451
      6450      6448      6451      6451      6453      6454      6451      6453      6455
      6452      6451      6453      6453      6455      6456      6453      6455      6457
      6453      6455      6458      6454      6453      6455      6455      6458      6459
      6455      6458      6460      6455      6458      6461      6456      6455      6457
      6456      6455      6458      6457      6455      6458      6458      6461      6462
      6458      6461      6463      6458      6461      6464      6459      6458      6460
      6459      6458      6461      6460      6458      6461      6461      6464      6465
      6461      6464      6466      6461      6464      6467      6462      6461      6463
      6462      6461      6464      6463      6461      6464      6464      6467      6468
      6464      6467      6469      6464      6467      6470      6465      6464      6466
      6465      6464      6467      6466      6464      6467      6467      6470      6471
      6467      6470      6472      6467      6470      6473      6468      6467      6469
      6468      6467      6470      6469      6467      6470      6470      6473      6474
      6470      6473      6475      6470      6473      6476      6471      6470      6472
      6471      6470      6473      6472      6470      6473      6473      6476      6477
      6473      6476      6478      6473      6476      6479      6474      6473      6475
      6474      6473      6476      6475      6473      6476      6477      6476      6478
      6477      6476      6479      6478      6476      6479      6480      6483      6484
      6480      6483      6485      6480      6483      6486      6481      6480      6482
      6481      6480      6483      6482      6480      6483      6483      6486      6487
      6483      6486      6488      6483      6486      6489      6484      6483      6485
      6484      6483      6486      6485      6483      6486      6486      6489      6490
      6486      6489      6491      6486      6489      6492      6487      6486      6488
      6487      6486      6489      6488      6486      6489      6489      6492      6493
      6489      6492      6494      6489      6492      6495      6490      6489      6491
      6490      6489      6492      6491      6489      6492      6492      6495      6496
      6492      6495      6497      6492      6495      6498      6493      6492      6494
      6493      6492      6495      6494      6492      6495      6495      6498      6499
      6495      6498      6500      6495      6498      6501      6496      6495      6497
      6496      6495      6498      6497      6495      6498      6498      6501      6502
      6498      6501      6503      6498      6501      6504      6499      6498      6500
      6499      6498      6501      6500      6498      6501      6501      6504      6505
      6501      6504      6506      6501      6504      6507      6502      6501      6503
      6502      6501      6504      6503      6501      6504      6504      6507      6508
      6504      6507      6509      6504      6507      6510      6505      6504      6506
      6505      6504      6507      6506      6504      6507      6507      6510      6511
      6507      6510      6512      6507      6510      6513      6508      6507      6509
      6508      6507      6510      6509      6507      6510      6510      6513      6514
      6510      6513      6515      6510      6513      6516      6511      6510      6512
      6511      6510      6513      6512      6510      6513      6513      6516      6517
      6513      6516      6518      6513      6516      6519      6514      6513      6515
      6514      6513      6516      6515      6513      6516      6516      6519      6520
      6516      6519      6521      6516      6519      6522      6517      6516      6518
      6517      6516      6519      6518      6516      6519      6519      6522      6523
      6519      6522      6524      6519      6522      6525      6520      6519      6521
      6520      6519      6522      6521      6519      6522      6522      6525      6526
      6522      6525      6527      6522      6525      6528      6523      6522      6524
      6523      6522      6525      6524      6522      6525      6526      6525      6527
      6526      6525      6528      6527      6525      6528      6529      6530      6531
      6529      6530      6532      6529      6530      6545      6529      6533      6534
      6529      6533      6535      6529      6533      6536      6529      6537      6538
      6529      6537      6539      6529      6537      6540      6529      6541      6542
      6529      6541      6543      6529      6541      6544      6530      6529      6533
      6530      6529      6537      6530      6529      6541      6530      6545      6546
      6530      6545      6547      6530      6545      6551      6531      6530      6532
      6531      6530      6545      6532      6530      6545      6533      6529      6537
      6533      6529      6541      6534      6533      6535      6534      6533      6536
      6535      6533      6536      6537      6529      6541      6538      6537      6539
      6538      6537      6540      6539      6537      6540      6542      6541      6543
      6542      6541      6544      6543      6541      6544      6545      6551      6548
      6546      6545      6547      6546      6545      6551      6547      6545      6551
      6548      6552      6553      6549      6548      6550      6549      6548      6551
      6549      6548      6552      6550      6548      6551      6550      6548      6552
      6551      6548      6552      6552      6553      6554      6552      6553      6555
      6552      6553      6556      6553      6556      6557      6553      6556      6558
      6553      6556      6564      6554      6553      6555      6554      6553      6556
      6555      6553      6556      6556      6558      6559      6556      6564      6565
      6556      6564      6566      6556      6564      6567      6557      6556      6558
      6557      6556      6564      6558      6556      6564      6558      6559      6560
      6558      6559      6561      6559      6561      6562      6559      6561      6563
      6559      6561      6573      6560      6559      6561      6561      6573      6574
      6561      6573      6575      6561      6573      6576      6562      6561      6563
      6562      6561      6573      6563      6561      6573      6564      6567      6568
      6565      6564      6566      6565      6564      6567      6566      6564      6567
      6567      6568      6569      6567      6568      6570      6568      6570      6571
      6568      6570      6572      6568      6570      6620      6569      6568      6570
      6570      6620      6621      6570      6620      6622      6570      6620      6623
      6571      6570      6572      6571      6570      6620      6572      6570      6620
      6573      6576      6577      6573      6576      6578      6573      6576      6579
      6574      6573      6575      6574      6573      6576      6575      6573      6576
      6576      6579      6580      6576      6579      6581      6577      6576      6578
      6577      6576      6579      6578      6576      6579      6579      6581      6582
      6579      6581      6583      6580      6579      6581      6581      6583      6584
      6581      6583      6585      6581      6583      6586      6582      6581      6583
      6583      6586      6587      6583      6586      6588      6584      6583      6585
      6584      6583      6586      6585      6583      6586      6586      6588      6589
      6586      6588      6590      6587      6586      6588      6588      6590      6591
      6588      6590      6592      6588      6590      6593      6589      6588      6590
      6590      6593      6594      6590      6593      6595      6591      6590      6592
      6591      6590      6593      6592      6590      6593      6593      6595      6596
      6593      6595      6597      6594      6593      6595      6595      6597      6598
      6595      6597      6599      6595      6597      6600      6596      6595      6597
      6597      6600      6601      6597      6600      6602      6598      6597      6599
      6598      6597      6600      6599      6597      6600      6600      6602      6603
      6600      6602      6604      6601      6600      6602      6602      6604      6605
      6602      6604      6606      6602      6604      6607      6603      6602      6604
      6604      6607      6608      6604      6607      6609      6604      6607      6610
      6605      6604      6606      6605      6604      6607      6606      6604      6607
      6607      6610      6611      6607      6610      6612      6607      6610      6613
      6608      6607      6609      6608      6607      6610      6609      6607      6610
      6610      6613      6614      6610      6613      6615      6610      6613      6616
      6611      6610      6612      6611      6610      6613      6612      6610      6613
      6613      6616      6617      6613      6616      6618      6613      6616      6619
      6614      6613      6615      6614      6613      6616      6615      6613      6616
      6617      6616      6618      6617      6616      6619      6618      6616      6619
      6620      6623      6624      6620      6623      6625      6620      6623      6626
      6621      6620      6622      6621      6620      6623      6622      6620      6623
      6623      6626      6627      6623      6626      6628      6623      6626      6629
      6624      6623      6625      6624      6623      6626      6625      6623      6626
      6626      6629      6630      6626      6629      6631      6626      6629      6632
      6627      6626      6628      6627      6626      6629      6628      6626      6629
      6629      6632      6633      6629      6632      6634      6629      6632      6635
      6630      6629      6631      6630      6629      6632      6631      6629      6632
      6632      6635      6636      6632      6635      6637      6632      6635      6638
      6633      6632      6634      6633      6632      6635      6634      6632      6635
      6635      6638      6639      6635      6638      6640      6635      6638      6641
      6636      6635      6637      6636      6635      6638      6637      6635      6638
      6638      6641      6642      6638      6641      6643      6638      6641      6644
      6639      6638      6640      6639      6638      6641      6640      6638      6641
      6641      6644      6645      6641      6644      6646      6641      6644      6647
      6642      6641      6643      6642      6641      6644      6643      6641      6644
      6644      6647      6648      6644      6647      6649      6644      6647      6650
      6645      6644      6646      6645      6644      6647      6646      6644      6647
      6647      6650      6651      6647      6650      6652      6647      6650      6653
      6648      6647      6649      6648      6647      6650      6649      6647      6650
      6650      6653      6654      6650      6653      6655      6650      6653      6656
      6651      6650      6652      6651      6650      6653      6652      6650      6653
      6653      6656      6657      6653      6656      6658      6653      6656      6659
      6654      6653      6655      6654      6653      6656      6655      6653      6656
      6656      6659      6660      6656      6659      6661      6656      6659      6662
      6657      6656      6658      6657      6656      6659      6658      6656      6659
      6659      6662      6663      6659      6662      6664      6659      6662      6665
      6660      6659      6661      6660      6659      6662      6661      6659      6662
      6662      6665      6666      6662      6665      6667      6662      6665      6668
      6663      6662      6664      6663      6662      6665      6664      6662      6665
      6666      6665      6667      6666      6665      6668      6667      6665      6668
      6669      6670      6671      6669      6670      6672      6669      6670      6673
      6669      6674      6675      6669      6674      6676      6669      6674      6677
      6669      6678      6679      6669      6678      6680      6669      6678      6681
      6669      6682      6683      6669      6682      6684      6669      6682      6685
      6670      6669      6674      6670      6669      6678      6670      6669      6682
      6671      6670      6672      6671      6670      6673      6672      6670      6673
      6674      6669      6678      6674      6669      6682      6675      6674      6676
      6675      6674      6677      6676      6674      6677      6678      6669      6682
      6679      6678      6680      6679      6678      6681      6680      6678      6681
      6682      6685      6686      6682      6685      6687      6682      6685      6692
      6683      6682      6684      6683      6682      6685      6684      6682      6685
      6685      6692      6688      6686      6685      6687      6686      6685      6692
      6687      6685      6692      6688      6691      6693      6689      6688      6690
      6689      6688      6691      6689      6688      6692      6690      6688      6691
      6690      6688      6692      6691      6688      6692      6691      6693      6694
      6691      6693      6695      6691      6693      6698      6693      6698      6696
      6693      6698      6699      6693      6698      6700      6694      6693      6695
      6694      6693      6698      6695      6693      6698      6696      6698      6699
      6696      6698      6700      6696      6748      6749      6696      6748      6750
      6697      6696      6698      6697      6696      6748      6698      6696      6748
      6698      6700      6701      6698      6700      6702      6698      6700      6704
      6699      6698      6700      6700      6702      6703      6700      6704      6705
      6700      6704      6706      6701      6700      6702      6701      6700      6704
      6702      6700      6704      6704      6706      6707      6704      6706      6708
      6705      6704      6706      6706      6708      6709      6706      6708      6710
      6706      6708      6711      6707      6706      6708      6708      6711      6712
      6708      6711      6713      6708      6711      6714      6709      6708      6710
      6709      6708      6711      6710      6708      6711      6711      6714      6715
      6711      6714      6716      6711      6714      6717      6712      6711      6713
      6712      6711      6714      6713      6711      6714      6714      6717      6718
      6714      6717      6719      6714      6717      6720      6715      6714      6716
      6715      6714      6717      6716      6714      6717      6717      6720      6721
      6717      6720      6722      6717      6720      6723      6718      6717      6719
      6718      6717      6720      6719      6717      6720      6720      6723      6724
      6720      6723      6725      6720      6723      6726      6721      6720      6722
      6721      6720      6723      6722      6720      6723      6723      6726      6727
      6723      6726      6728      6723      6726      6729      6724      6723      6725
      6724      6723      6726      6725      6723      6726      6726      6729      6730
      6726      6729      6731      6726      6729      6732      6727      6726      6728
      6727      6726      6729      6728      6726      6729      6729      6732      6733
      6729      6732      6734      6729      6732      6735      6730      6729      6731
      6730      6729      6732      6731      6729      6732      6732      6735      6736
      6732      6735      6737      6732      6735      6738      6733      6732      6734
      6733      6732      6735      6734      6732      6735      6735      6738      6739
      6735      6738      6740      6735      6738      6741      6736      6735      6737
      6736      6735      6738      6737      6735      6738      6738      6741      6742
      6738      6741      6743      6738      6741      6744      6739      6738      6740
      6739      6738      6741      6740      6738      6741      6741      6744      6745
      6741      6744      6746      6741      6744      6747      6742      6741      6743
      6742      6741      6744      6743      6741      6744      6745      6744      6746
      6745      6744      6747      6746      6744      6747      6748      6750      6751
      6748      6750      6752      6748      6750      6753      6749      6748      6750
      6750      6753      6754      6750      6753      6755      6750      6753      6756
      6751      6750      6752      6751      6750      6753      6752      6750      6753
      6753      6756      6757      6753      6756      6758      6753      6756      6759
      6754      6753      6755      6754      6753      6756      6755      6753      6756
      6756      6759      6760      6756      6759      6761      6756      6759      6762
      6757      6756      6758      6757      6756      6759      6758      6756      6759
      6759      6762      6763      6759      6762      6764      6759      6762      6765
      6760      6759      6761      6760      6759      6762      6761      6759      6762
      6762      6765      6766      6762      6765      6767      6762      6765      6768
      6763      6762      6764      6763      6762      6765      6764      6762      6765
      6765      6768      6769      6765      6768      6770      6765      6768      6771
      6766      6765      6767      6766      6765      6768      6767      6765      6768
      6768      6771      6772      6768      6771      6773      6769      6768      6770
      6769      6768      6771      6770      6768      6771      6771      6773      6774
      6771      6773      6775      6772      6771      6773      6773      6775      6776
      6773      6775      6777      6773      6775      6778      6774      6773      6775
      6775      6778      6779      6775      6778      6780      6775      6778      6781
      6776      6775      6777      6776      6775      6778      6777      6775      6778
      6778      6781      6782      6778      6781      6783      6778      6781      6784
      6779      6778      6780      6779      6778      6781      6780      6778      6781
      6781      6784      6785      6781      6784      6786      6781      6784      6787
      6782      6781      6783      6782      6781      6784      6783      6781      6784
      6784      6787      6788      6784      6787      6789      6784      6787      6790
      6785      6784      6786      6785      6784      6787      6786      6784      6787
      6787      6790      6791      6787      6790      6792      6787      6790      6793
      6788      6787      6789      6788      6787      6790      6789      6787      6790
      6790      6793      6794      6790      6793      6795      6790      6793      6796
      6791      6790      6792      6791      6790      6793      6792      6790      6793
      6793      6796      6797      6793      6796      6798      6793      6796      6799
      6794      6793      6795      6794      6793      6796      6795      6793      6796
      6797      6796      6798      6797      6796      6799      6798      6796      6799
      6800      6802      6803      6800      6804      6805      6800      6804      6806
      6800      6804      6807      6800      6846      6843      6800      6846      6847
      6800      6846      6848      6801      6800      6802      6801      6800      6804
      6801      6800      6846      6802      6800      6804      6802      6800      6846
      6804      6800      6846      6804      6807      6808      6804      6807      6838
      6805      6804      6806      6805      6804      6807      6806      6804      6807
      6807      6808      6809      6807      6808      6810      6807      6838      6836
      6807      6838      6839      6807      6838      6843      6808      6807      6838
      6808      6810      6811      6808      6810      6812      6808      6810      6813
      6809      6808      6810      6810      6813      6814      6810      6813      6815
      6810      6813      6836      6811      6810      6812      6811      6810      6813
      6812      6810      6813      6813      6815      6816      6813      6815      6817
      6813      6815      6825      6813      6836      6833      6813      6836      6837
      6813      6836      6838      6814      6813      6815      6814      6813      6836
      6815      6813      6836      6815      6817      6818      6815      6817      6819
      6815      6817      6820      6815      6825      6823      6815      6825      6826
      6815      6825      6830      6816      6815      6817      6816      6815      6825
      6817      6815      6825      6817      6820      6821      6817      6820      6822
      6817      6820      6823      6818      6817      6819      6818      6817      6820
      6819      6817      6820      6820      6823      6824      6820      6823      6825
      6820      6823      6849      6821      6820      6822      6821      6820      6823
      6822      6820      6823      6823      6825      6826      6823      6825      6830
      6823      6849      6850      6823      6849      6851      6823      6849      6855
      6824      6823      6825      6824      6823      6849      6825      6823      6849
      6825      6826      6827      6825      6826      6828      6825      6826      6829
      6825      6830      6831      6825      6830      6832      6825      6830      6833
      6826      6825      6830      6827      6826      6828      6827      6826      6829
      6828      6826      6829      6830      6833      6834      6830      6833      6835
      6830      6833      6836      6831      6830      6832      6831      6830      6833
      6832      6830      6833      6833      6836      6837      6833      6836      6838
      6834      6833      6835      6834      6833      6836      6835      6833      6836
      6836      6838      6839      6836      6838      6843      6837      6836      6838
      6838      6839      6840      6838      6839      6841      6838      6839      6842
      6838      6843      6844      6838      6843      6845      6838      6843      6846
      6839      6838      6843      6840      6839      6841      6840      6839      6842
      6841      6839      6842      6843      6846      6847      6843      6846      6848
      6844      6843      6845      6844      6843      6846      6845      6843      6846
      6847      6846      6848      6849      6851      6852      6849      6851      6853
      6849      6851      6854      6849      6855      6856      6849      6855      6857
      6849      6855      6858      6850      6849      6851      6850      6849      6855
      6851      6849      6855      6852      6851      6853      6852      6851      6854
      6853      6851      6854      6855      6858      6859      6855      6858      6860
      6855      6858      6861      6856      6855      6857      6856      6855      6858
      6857      6855      6858      6858      6861      6862      6858      6861      6863
      6858      6861      6864      6859      6858      6860      6859      6858      6861
      6860      6858      6861      6861      6864      6865      6861      6864      6866
      6861      6864      6870      6862      6861      6863      6862      6861      6864
      6863      6861      6864      6864      6866      6867      6864      6866      6868
      6864      6866      6869      6864      6870      6871      6864      6870      6872
      6864      6870      6873      6865      6864      6866      6865      6864      6870
      6866      6864      6870      6867      6866      6868      6867      6866      6869
      6868      6866      6869      6871      6870      6872      6871      6870      6873
      6872      6870      6873      6874      6875      6876      6874      6875      6877
      6874      6875      6878      6874      6879      6880      6874      6879      6881
      6874      6879      6882      6874      6883      6884      6874      6883      6885
      6874      6883      6886      6874      6887      6888      6874      6887      6889
      6874      6887      6890      6875      6874      6879      6875      6874      6883
      6875      6874      6887      6876      6875      6877      6876      6875      6878
      6877      6875      6878      6879      6874      6883      6879      6874      6887
      6880      6879      6881      6880      6879      6882      6881      6879      6882
      6883      6874      6887      6884      6883      6885      6884      6883      6886
      6885      6883      6886      6887      6890      6891      6887      6890      6892
      6887      6890      6896      6888      6887      6889      6888      6887      6890
      6889      6887      6890      6890      6896      6893      6891      6890      6892
      6891      6890      6896      6892      6890      6896      6893      6897      6898
      6894      6893      6895      6894      6893      6896      6894      6893      6897
      6895      6893      6896      6895      6893      6897      6896      6893      6897
      6897      6898      6899      6897      6898      6900      6897      6898      6901
      6898      6901      6902      6898      6901      6903      6898      6901      6909
      6899      6898      6900      6899      6898      6901      6900      6898      6901
      6901      6903      6904      6901      6909      6910      6901      6909      6911
      6901      6909      6912      6902      6901      6903      6902      6901      6909
      6903      6901      6909      6903      6904      6905      6903      6904      6906
      6904      6906      6907      6904      6906      6908      6904      6906      6918
      6905      6904      6906      6906      6918      6919      6906      6918      6920
      6906      6918      6921      6907      6906      6908      6907      6906      6918
      6908      6906      6918      6909      6912      6913      6910      6909      6911
      6910      6909      6912      6911      6909      6912      6912      6913      6914
      6912      6913      6915      6913      6915      6916      6913      6915      6917
      6913      6915      6963      6914      6913      6915      6915      6963      6964
      6915      6963      6965      6915      6963      6966      6916      6915      6917
      6916      6915      6963      6917      6915      6963      6918      6921      6922
      6918      6921      6923      6918      6921      6924      6919      6918      6920
      6919      6918      6921      6920      6918      6921      6921      6924      6925
      6921      6924      6926      6921      6924      6927      6922      6921      6923
      6922      6921      6924      6923      6921      6924      6924      6927      6928
      6924      6927      6929      6924      6927      6930      6925      6924      6926
      6925      6924      6927      6926      6924      6927      6927      6930      6931
      6927      6930      6932      6927      6930      6933      6928      6927      6929
      6928      6927      6930      6929      6927      6930      6930      6933      6934
      6930      6933      6935      6930      6933      6936      6931      6930      6932
      6931      6930      6933      6932      6930      6933      6933      6936      6937
      6933      6936      6938      6934      6933      6935      6934      6933      6936
      6935      6933      6936      6936      6938      6939      6936      6938      6940
      6937      6936      6938      6938      6940      6941      6938      6940      6942
      6938      6940      6943      6939      6938      6940      6940      6943      6944
      6940      6943      6945      6941      6940      6942      6941      6940      6943
      6942      6940      6943      6943      6945      6946      6943      6945      6947
      6944      6943      6945      6945      6947      6948      6945      6947      6949
      6945      6947      6950      6946      6945      6947      6947      6950      6951
      6947      6950      6952      6947      6950      6953      6948      6947      6949
      6948      6947      6950      6949      6947      6950      6950      6953      6954
      6950      6953      6955      6950      6953      6956      6951      6950      6952
      6951      6950      6953      6952      6950      6953      6953      6956      6957
      6953      6956      6958      6953      6956      6959      6954      6953      6955
      6954      6953      6956      6955      6953      6956      6956      6959      6960
      6956      6959      6961      6956      6959      6962      6957      6956      6958
      6957      6956      6959      6958      6956      6959      6960      6959      6961
      6960      6959      6962      6961      6959      6962      6963      6966      6967
      6963      6966      6968      6963      6966      6969      6964      6963      6965
      6964      6963      6966      6965      6963      6966      6966      6969      6970
      6966      6969      6971      6966      6969      6972      6967      6966      6968
      6967      6966      6969      6968      6966      6969      6969      6972      6973
      6969      6972      6974      6969      6972      6975      6970      6969      6971
      6970      6969      6972      6971      6969      6972      6972      6975      6976
      6972      6975      6977      6972      6975      6978      6973      6972      6974
      6973      6972      6975      6974      6972      6975      6975      6978      6979
      6975      6978      6980      6975      6978      6981      6976      6975      6977
      6976      6975      6978      6977      6975      6978      6978      6981      6982
      6978      6981      6983      6978      6981      6984      6979      6978      6980
      6979      6978      6981      6980      6978      6981      6981      6984      6985
      6981      6984      6986      6981      6984      6987      6982      6981      6983
      6982      6981      6984      6983      6981      6984      6984      6987      6988
      6984      6987      6989      6984      6987      6990      6985      6984      6986
      6985      6984      6987      6986      6984      6987      6987      6990      6991
      6987      6990      6992      6987      6990      6993      6988      6987      6989
      6988      6987      6990      6989      6987      6990      6990      6993      6994
      6990      6993      6995      6990      6993      6996      6991      6990      6992
      6991      6990      6993      6992      6990      6993      6993      6996      6997
      6993      6996      6998      6993      6996      6999      6994      6993      6995
      6994      6993      6996      6995      6993      6996      6996      6999      7000
      6996      6999      7001      6996      6999      7002      6997      6996      6998
      6997      6996      6999      6998      6996      6999      6999      7002      7003
      6999      7002      7004      6999      7002      7005      7000      6999      7001
      7000      6999      7002      7001      6999      7002      7002      7005      7006
      7002      7005      7007      7002      7005      7008      7003      7002      7004
      7003      7002      7005      7004      7002      7005      7005      7008      7009
      7005      7008      7010      7005      7008      7011      7006      7005      7007
      7006      7005      7008      7007      7005      7008      7009      7008      7010
      7009      7008      7011      7010      7008      7011      7012      7014      7015
      7012      7016      7017      7012      7016      7018      7012      7016      7019
      7012      7058      7055      7012      7058      7059      7012      7058      7060
      7013      7012      7014      7013      7012      7016      7013      7012      7058
      7014      7012      7016      7014      7012      7058      7016      7012      7058
      7016      7019      7020      7016      7019      7050      7017      7016      7018
      7017      7016      7019      7018      7016      7019      7019      7020      7021
      7019      7020      7022      7019      7050      7048      7019      7050      7051
      7019      7050      7055      7020      7019      7050      7020      7022      7023
      7020      7022      7024      7020      7022      7025      7021      7020      7022
      7022      7025      7026      7022      7025      7027      7022      7025      7048
      7023      7022      7024      7023      7022      7025      7024      7022      7025
      7025      7027      7028      7025      7027      7029      7025      7027      7037
      7025      7048      7045      7025      7048      7049      7025      7048      7050
      7026      7025      7027      7026      7025      7048      7027      7025      7048
      7027      7029      7030      7027      7029      7031      7027      7029      7032
      7027      7037      7035      7027      7037      7038      7027      7037      7042
      7028      7027      7029      7028      7027      7037      7029      7027      7037
      7029      7032      7033      7029      7032      7034      7029      7032      7035
      7030      7029      7031      7030      7029      7032      7031      7029      7032
      7032      7035      7036      7032      7035      7037      7032      7035      7061
      7033      7032      7034      7033      7032      7035      7034      7032      7035
      7035      7037      7038      7035      7037      7042      7035      7061      7062
      7035      7061      7063      7035      7061      7067      7036      7035      7037
      7036      7035      7061      7037      7035      7061      7037      7038      7039
      7037      7038      7040      7037      7038      7041      7037      7042      7043
      7037      7042      7044      7037      7042      7045      7038      7037      7042
      7039      7038      7040      7039      7038      7041      7040      7038      7041
      7042      7045      7046      7042      7045      7047      7042      7045      7048
      7043      7042      7044      7043      7042      7045      7044      7042      7045
      7045      7048      7049      7045      7048      7050      7046      7045      7047
      7046      7045      7048      7047      7045      7048      7048      7050      7051
      7048      7050      7055      7049      7048      7050      7050      7051      7052
      7050      7051      7053      7050      7051      7054      7050      7055      7056
      7050      7055      7057      7050      7055      7058      7051      7050      7055
      7052      7051      7053      7052      7051      7054      7053      7051      7054
      7055      7058      7059      7055      7058      7060      7056      7055      7057
      7056      7055      7058      7057      7055      7058      7059      7058      7060
      7061      7063      7064      7061      7063      7065      7061      7063      7066
      7061      7067      7068      7061      7067      7069      7061      7067      7070
      7062      7061      7063      7062      7061      7067      7063      7061      7067
      7064      7063      7065      7064      7063      7066      7065      7063      7066
      7067      7070      7071      7067      7070      7072      7067      7070      7073
      7068      7067      7069      7068      7067      7070      7069      7067      7070
      7070      7073      7074      7070      7073      7075      7070      7073      7076
      7071      7070      7072      7071      7070      7073      7072      7070      7073
      7073      7076      7077      7073      7076      7078      7073      7076      7082
      7074      7073      7075      7074      7073      7076      7075      7073      7076
      7076      7078      7079      7076      7078      7080      7076      7078      7081
      7076      7082      7083      7076      7082      7084      7076      7082      7085
      7077      7076      7078      7077      7076      7082      7078      7076      7082
      7079      7078      7080      7079      7078      7081      7080      7078      7081
      7083      7082      7084      7083      7082      7085      7084      7082      7085
      7086      7088      7089      7086      7090      7091      7086      7090      7092
      7086      7090      7094      7086      7106      7102      7086      7106      7107
      7086      7106      7111      7087      7086      7088      7087      7086      7090
      7087      7086      7106      7088      7086      7090      7088      7086      7106
      7090      7086      7106      7090      7092      7093      7090      7094      7095
      7090      7094      7096      7090      7094      7098      7091      7090      7092
      7091      7090      7094      7092      7090      7094      7094      7096      7097
      7094      7098      7099      7094      7098      7100      7094      7098      7102
      7095      7094      7096      7095      7094      7098      7096      7094      7098
      7098      7100      7101      7098      7102      7103      7098      7102      7104
      7098      7102      7106      7099      7098      7100      7099      7098      7102
      7100      7098      7102      7102      7104      7105      7102      7106      7107
      7102      7106      7111      7103      7102      7104      7103      7102      7106
      7104      7102      7106      7106      7111      7108      7107      7106      7111
      7108      7112      7113      7109      7108      7110      7109      7108      7111
      7109      7108      7112      7110      7108      7111      7110      7108      7112
      7111      7108      7112      7112      7113      7114      7112      7113      7115
      7112      7113      7116      7113      7116      7117      7113      7116      7118
      7113      7116      7124      7114      7113      7115      7114      7113      7116
      7115      7113      7116      7116      7118      7119      7116      7124      7125
      7116      7124      7126      7116      7124      7127      7117      7116      7118
      7117      7116      7124      7118      7116      7124      7118      7119      7120
      7118      7119      7121      7119      7121      7122      7119      7121      7123
      7119      7121      7133      7120      7119      7121      7121      7133      7134
      7121      7133      7135      7121      7133      7136      7122      7121      7123
      7122      7121      7133      7123      7121      7133      7124      7127      7128
      7125      7124      7126      7125      7124      7127      7126      7124      7127
      7127      7128      7129      7127      7128      7130      7128      7130      7131
      7128      7130      7132      7128      7130      7180      7129      7128      7130
      7130      7180      7181      7130      7180      7182      7130      7180      7183
      7131      7130      7132      7131      7130      7180      7132      7130      7180
      7133      7136      7137      7133      7136      7138      7133      7136      7139
      7134      7133      7135      7134      7133      7136      7135      7133      7136
      7136      7139      7140      7136      7139      7141      7137      7136      7138
      7137      7136      7139      7138      7136      7139      7139      7141      7142
      7139      7141      7143      7140      7139      7141      7141      7143      7144
      7141      7143      7145      7141      7143      7146      7142      7141      7143
      7143      7146      7147      7143      7146      7148      7144      7143      7145
      7144      7143      7146      7145      7143      7146      7146      7148      7149
      7146      7148      7150      7147      7146      7148      7148      7150      7151
      7148      7150      7152      7148      7150      7153      7149      7148      7150
      7150      7153      7154      7150      7153      7155      7151      7150      7152
      7151      7150      7153      7152      7150      7153      7153      7155      7156
      7153      7155      7157      7154      7153      7155      7155      7157      7158
      7155      7157      7159      7155      7157      7160      7156      7155      7157
      7157      7160      7161      7157      7160      7162      7158      7157      7159
      7158      7157      7160      7159      7157      7160      7160      7162      7163
      7160      7162      7164      7161      7160      7162      7162      7164      7165
      7162      7164      7166      7162      7164      7167      7163      7162      7164
      7164      7167      7168      7164      7167      7169      7164      7167      7170
      7165      7164      7166      7165      7164      7167      7166      7164      7167
      7167      7170      7171      7167      7170      7172      7167      7170      7173
      7168      7167      7169      7168      7167      7170      7169      7167      7170
      7170      7173      7174      7170      7173      7175      7170      7173      7176
      7171      7170      7172      7171      7170      7173      7172      7170      7173
      7173      7176      7177      7173      7176      7178      7173      7176      7179
      7174      7173      7175      7174      7173      7176      7175      7173      7176
      7177      7176      7178      7177      7176      7179      7178      7176      7179
      7180      7183      7184      7180      7183      7185      7180      7183      7186
      7181      7180      7182      7181      7180      7183      7182      7180      7183
      7183      7186      7187      7183      7186      7188      7183      7186      7189
      7184      7183      7185      7184      7183      7186      7185      7183      7186
      7186      7189      7190      7186      7189      7191      7186      7189      7192
      7187      7186      7188      7187      7186      7189      7188      7186      7189
      7189      7192      7193      7189      7192      7194      7189      7192      7195
      7190      7189      7191      7190      7189      7192      7191      7189      7192
      7192      7195      7196      7192      7195      7197      7192      7195      7198
      7193      7192      7194      7193      7192      7195      7194      7192      7195
      7195      7198      7199      7195      7198      7200      7195      7198      7201
      7196      7195      7197      7196      7195      7198      7197      7195      7198
      7198      7201      7202      7198      7201      7203      7198      7201      7204
      7199      7198      7200      7199      7198      7201      7200      7198      7201
      7201      7204      7205      7201      7204      7206      7201      7204      7207
      7202      7201      7203      7202      7201      7204      7203      7201      7204
      7204      7207      7208      7204      7207      7209      7204      7207      7210
      7205      7204      7206      7205      7204      7207      7206      7204      7207
      7207      7210      7211      7207      7210      7212      7207      7210      7213
      7208      7207      7209      7208      7207      7210      7209      7207      7210
      7210      7213      7214      7210      7213      7215      7210      7213      7216
      7211      7210      7212      7211      7210      7213      7212      7210      7213
      7213      7216      7217      7213      7216      7218      7213      7216      7219
      7214      7213      7215      7214      7213      7216      7215      7213      7216
      7216      7219      7220      7216      7219      7221      7216      7219      7222
      7217      7216      7218      7217      7216      7219      7218      7216      7219
      7219      7222      7223      7219      7222      7224      7219      7222      7225
      7220      7219      7221      7220      7219      7222      7221      7219      7222
      7222      7225      7226      7222      7225      7227      7222      7225      7228
      7223      7222      7224      7223      7222      7225      7224      7222      7225
      7226      7225      7227      7226      7225      7228      7227      7225      7228
      7229      7231      7232      7229      7233      7234      7229      7233      7235
      7229      7233      7236      7229      7275      7272      7229      7275      7276
      7229      7275      7277      7230      7229      7231      7230      7229      7233
      7230      7229      7275      7231      7229      7233      7231      7229      7275
      7233      7229      7275      7233      7236      7237      7233      7236      7267
      7234      7233      7235      7234      7233      7236      7235      7233      7236
      7236      7237      7238      7236      7237      7239      7236      7267      7265
      7236      7267      7268      7236      7267      7272      7237      7236      7267
      7237      7239      7240      7237      7239      7241      7237      7239      7242
      7238      7237      7239      7239      7242      7243      7239      7242      7244
      7239      7242      7265      7240      7239      7241      7240      7239      7242
      7241      7239      7242      7242      7244      7245      7242      7244      7246
      7242      7244      7254      7242      7265      7262      7242      7265      7266
      7242      7265      7267      7243      7242      7244      7243      7242      7265
      7244      7242      7265      7244      7246      7247      7244      7246      7248
      7244      7246      7249      7244      7254      7252      7244      7254      7255
      7244      7254      7259      7245      7244      7246      7245      7244      7254
      7246      7244      7254      7246      7249      7250      7246      7249      7251
      7246      7249      7252      7247      7246      7248      7247      7246      7249
      7248      7246      7249      7249      7252      7253      7249      7252      7254
      7249      7252      7278      7250      7249      7251      7250      7249      7252
      7251      7249      7252      7252      7254      7255      7252      7254      7259
      7252      7278      7279      7252      7278      7280      7252      7278      7284
      7253      7252      7254      7253      7252      7278      7254      7252      7278
      7254      7255      7256      7254      7255      7257      7254      7255      7258
      7254      7259      7260      7254      7259      7261      7254      7259      7262
      7255      7254      7259      7256      7255      7257      7256      7255      7258
      7257      7255      7258      7259      7262      7263      7259      7262      7264
      7259      7262      7265      7260      7259      7261      7260      7259      7262
      7261      7259      7262      7262      7265      7266      7262      7265      7267
      7263      7262      7264      7263      7262      7265      7264      7262      7265
      7265      7267      7268      7265      7267      7272      7266      7265      7267
      7267      7268      7269      7267      7268      7270      7267      7268      7271
      7267      7272      7273      7267      7272      7274      7267      7272      7275
      7268      7267      7272      7269      7268      7270      7269      7268      7271
      7270      7268      7271      7272      7275      7276      7272      7275      7277
      7273      7272      7274      7273      7272      7275      7274      7272      7275
      7276      7275      7277      7278      7280      7281      7278      7280      7282
      7278      7280      7283      7278      7284      7285      7278      7284      7286
      7278      7284      7287      7279      7278      7280      7279      7278      7284
      7280      7278      7284      7281      7280      7282      7281      7280      7283
      7282      7280      7283      7284      7287      7288      7284      7287      7289
      7284      7287      7290      7285      7284      7286      7285      7284      7287
      7286      7284      7287      7287      7290      7291      7287      7290      7292
      7287      7290      7293      7288      7287      7289      7288      7287      7290
      7289      7287      7290      7290      7293      7294      7290      7293      7295
      7290      7293      7299      7291      7290      7292      7291      7290      7293
      7292      7290      7293      7293      7295      7296      7293      7295      7297
      7293      7295      7298      7293      7299      7300      7293      7299      7301
      7293      7299      7302      7294      7293      7295      7294      7293      7299
      7295      7293      7299      7296      7295      7297      7296      7295      7298
      7297      7295      7298      7300      7299      7301      7300      7299      7302
      7301      7299      7302      7303      7304      7305      7303      7304      7306
      7303      7304      7307      7303      7308      7309      7303      7308      7310
      7303      7308      7311      7303      7312      7313      7303      7312      7314
      7303      7312      7315      7303      7316      7317      7303      7316      7318
      7303      7316      7319      7304      7303      7308      7304      7303      7312
      7304      7303      7316      7305      7304      7306      7305      7304      7307
      7306      7304      7307      7308      7303      7312      7308      7303      7316
      7309      7308      7310      7309      7308      7311      7310      7308      7311
      7312      7303      7316      7313      7312      7314      7313      7312      7315
      7314      7312      7315      7316      7319      7320      7316      7319      7321
      7316      7319      7325      7317      7316      7318      7317      7316      7319
      7318      7316      7319      7319      7325      7322      7320      7319      7321
      7320      7319      7325      7321      7319      7325      7322      7326      7327
      7323      7322      7324      7323      7322      7325      7323      7322      7326
      7324      7322      7325      7324      7322      7326      7325      7322      7326
      7326      7327      7328      7326      7327      7329      7326      7327      7330
      7327      7330      7331      7327      7330      7332      7327      7330      7338
      7328      7327      7329      7328      7327      7330      7329      7327      7330
      7330      7332      7333      7330      7338      7339      7330      7338      7340
      7330      7338      7341      7331      7330      7332      7331      7330      7338
      7332      7330      7338      7332      7333      7334      7332      7333      7335
      7333      7335      7336      7333      7335      7337      7333      7335      7347
      7334      7333      7335      7335      7347      7348      7335      7347      7349
      7335      7347      7350      7336      7335      7337      7336      7335      7347
      7337      7335      7347      7338      7341      7342      7339      7338      7340
      7339      7338      7341      7340      7338      7341      7341      7342      7343
      7341      7342      7344      7342      7344      7345      7342      7344      7346
      7342      7344      7392      7343      7342      7344      7344      7392      7393
      7344      7392      7394      7344      7392      7395      7345      7344      7346
      7345      7344      7392      7346      7344      7392      7347      7350      7351
      7347      7350      7352      7347      7350      7353      7348      7347      7349
      7348      7347      7350      7349      7347      7350      7350      7353      7354
      7350      7353      7355      7350      7353      7356      7351      7350      7352
      7351      7350      7353      7352      7350      7353      7353      7356      7357
      7353      7356      7358      7353      7356      7359      7354      7353      7355
      7354      7353      7356      7355      7353      7356      7356      7359      7360
      7356      7359      7361      7356      7359      7362      7357      7356      7358
      7357      7356      7359      7358      7356      7359      7359      7362      7363
      7359      7362      7364      7359      7362      7365      7360      7359      7361
      7360      7359      7362      7361      7359      7362      7362      7365      7366
      7362      7365      7367      7363      7362      7364      7363      7362      7365
      7364      7362      7365      7365      7367      7368      7365      7367      7369
      7366      7365      7367      7367      7369      7370      7367      7369      7371
      7367      7369      7372      7368      7367      7369      7369      7372      7373
      7369      7372      7374      7370      7369      7371      7370      7369      7372
      7371      7369      7372      7372      7374      7375      7372      7374      7376
      7373      7372      7374      7374      7376      7377      7374      7376      7378
      7374      7376      7379      7375      7374      7376      7376      7379      7380
      7376      7379      7381      7376      7379      7382      7377      7376      7378
      7377      7376      7379      7378      7376      7379      7379      7382      7383
      7379      7382      7384      7379      7382      7385      7380      7379      7381
      7380      7379      7382      7381      7379      7382      7382      7385      7386
      7382      7385      7387      7382      7385      7388      7383      7382      7384
      7383      7382      7385      7384      7382      7385      7385      7388      7389
      7385      7388      7390      7385      7388      7391      7386      7385      7387
      7386      7385      7388      7387      7385      7388      7389      7388      7390
      7389      7388      7391      7390      7388      7391      7392      7395      7396
      7392      7395      7397      7392      7395      7398      7393      7392      7394
      7393      7392      7395      7394      7392      7395      7395      7398      7399
      7395      7398      7400      7395      7398      7401      7396      7395      7397
      7396      7395      7398      7397      7395      7398      7398      7401      7402
      7398      7401      7403      7398      7401      7404      7399      7398      7400
      7399      7398      7401      7400      7398      7401      7401      7404      7405
      7401      7404      7406      7401      7404      7407      7402      7401      7403
      7402      7401      7404      7403      7401      7404      7404      7407      7408
      7404      7407      7409      7404      7407      7410      7405      7404      7406
      7405      7404      7407      7406      7404      7407      7407      7410      7411
      7407      7410      7412      7407      7410      7413      7408      7407      7409
      7408      7407      7410      7409      7407      7410      7410      7413      7414
      7410      7413      7415      7410      7413      7416      7411      7410      7412
      7411      7410      7413      7412      7410      7413      7413      7416      7417
      7413      7416      7418      7413      7416      7419      7414      7413      7415
      7414      7413      7416      7415      7413      7416      7416      7419      7420
      7416      7419      7421      7416      7419      7422      7417      7416      7418
      7417      7416      7419      7418      7416      7419      7419      7422      7423
      7419      7422      7424      7419      7422      7425      7420      7419      7421
      7420      7419      7422      7421      7419      7422      7422      7425      7426
      7422      7425      7427      7422      7425      7428      7423      7422      7424
      7423      7422      7425      7424      7422      7425      7425      7428      7429
      7425      7428      7430      7425      7428      7431      7426      7425      7427
      7426      7425      7428      7427      7425      7428      7428      7431      7432
      7428      7431      7433      7428      7431      7434      7429      7428      7430
      7429      7428      7431      7430      7428      7431      7431      7434      7435
      7431      7434      7436      7431      7434      7437      7432      7431      7433
      7432      7431      7434      7433      7431      7434      7434      7437      7438
      7434      7437      7439      7434      7437      7440      7435      7434      7436
      7435      7434      7437      7436      7434      7437      7438      7437      7439
      7438      7437      7440      7439      7437      7440      7441      7445      7446
      7441      7445      7447      7441      7445      7448      7442      7441      7443
      7442      7441      7444      7442      7441      7445      7443      7441      7444
      7443      7441      7445      7444      7441      7445      7445      7448      7449
      7445      7448      7450      7445      7448      7454      7446      7445      7447
      7446      7445      7448      7447      7445      7448      7448      7454      7451
      7449      7448      7450      7449      7448      7454      7450      7448      7454
      7451      7455      7456      7452      7451      7453      7452      7451      7454
      7452      7451      7455      7453      7451      7454      7453      7451      7455
      7454      7451      7455      7455      7456      7457      7455      7456      7458
      7455      7456      7459      7456      7459      7460      7456      7459      7461
      7456      7459      7467      7457      7456      7458      7457      7456      7459
      7458      7456      7459      7459      7461      7462      7459      7467      7468
      7459      7467      7469      7459      7467      7470      7460      7459      7461
      7460      7459      7467      7461      7459      7467      7461      7462      7463
      7461      7462      7464      7462      7464      7465      7462      7464      7466
      7462      7464      7476      7463      7462      7464      7464      7476      7477
      7464      7476      7478      7464      7476      7479      7465      7464      7466
      7465      7464      7476      7466      7464      7476      7467      7470      7471
      7468      7467      7469      7468      7467      7470      7469      7467      7470
      7470      7471      7472      7470      7471      7473      7471      7473      7474
      7471      7473      7475      7471      7473      7523      7472      7471      7473
      7473      7523      7524      7473      7523      7525      7473      7523      7526
      7474      7473      7475      7474      7473      7523      7475      7473      7523
      7476      7479      7480      7476      7479      7481      7476      7479      7482
      7477      7476      7478      7477      7476      7479      7478      7476      7479
      7479      7482      7483      7479      7482      7484      7480      7479      7481
      7480      7479      7482      7481      7479      7482      7482      7484      7485
      7482      7484      7486      7483      7482      7484      7484      7486      7487
      7484      7486      7488      7484      7486      7489      7485      7484      7486
      7486      7489      7490      7486      7489      7491      7487      7486      7488
      7487      7486      7489      7488      7486      7489      7489      7491      7492
      7489      7491      7493      7490      7489      7491      7491      7493      7494
      7491      7493      7495      7491      7493      7496      7492      7491      7493
      7493      7496      7497      7493      7496      7498      7494      7493      7495
      7494      7493      7496      7495      7493      7496      7496      7498      7499
      7496      7498      7500      7497      7496      7498      7498      7500      7501
      7498      7500      7502      7498      7500      7503      7499      7498      7500
      7500      7503      7504      7500      7503      7505      7501      7500      7502
      7501      7500      7503      7502      7500      7503      7503      7505      7506
      7503      7505      7507      7504      7503      7505      7505      7507      7508
      7505      7507      7509      7505      7507      7510      7506      7505      7507
      7507      7510      7511      7507      7510      7512      7507      7510      7513
      7508      7507      7509      7508      7507      7510      7509      7507      7510
      7510      7513      7514      7510      7513      7515      7510      7513      7516
      7511      7510      7512      7511      7510      7513      7512      7510      7513
      7513      7516      7517      7513      7516      7518      7513      7516      7519
      7514      7513      7515      7514      7513      7516      7515      7513      7516
      7516      7519      7520      7516      7519      7521      7516      7519      7522
      7517      7516      7518      7517      7516      7519      7518      7516      7519
      7520      7519      7521      7520      7519      7522      7521      7519      7522
      7523      7526      7527      7523      7526      7528      7523      7526      7529
      7524      7523      7525      7524      7523      7526      7525      7523      7526
      7526      7529      7530      7526      7529      7531      7526      7529      7532
      7527      7526      7528      7527      7526      7529      7528      7526      7529
      7529      7532      7533      7529      7532      7534      7529      7532      7535
      7530      7529      7531      7530      7529      7532      7531      7529      7532
      7532      7535      7536      7532      7535      7537      7532      7535      7538
      7533      7532      7534      7533      7532      7535      7534      7532      7535
      7535      7538      7539      7535      7538      7540      7535      7538      7541
      7536      7535      7537      7536      7535      7538      7537      7535      7538
      7538      7541      7542      7538      7541      7543      7538      7541      7544
      7539      7538      7540      7539      7538      7541      7540      7538      7541
      7541      7544      7545      7541      7544      7546      7541      7544      7547
      7542      7541      7543      7542      7541      7544      7543      7541      7544
      7544      7547      7548      7544      7547      7549      7544      7547      7550
      7545      7544      7546      7545      7544      7547      7546      7544      7547
      7547      7550      7551      7547      7550      7552      7547      7550      7553
      7548      7547      7549      7548      7547      7550      7549      7547      7550
      7550      7553      7554      7550      7553      7555      7550      7553      7556
      7551      7550      7552      7551      7550      7553      7552      7550      7553
      7553      7556      7557      7553      7556      7558      7553      7556      7559
      7554      7553      7555      7554      7553      7556      7555      7553      7556
      7556      7559      7560      7556      7559      7561      7556      7559      7562
      7557      7556      7558      7557      7556      7559      7558      7556      7559
      7559      7562      7563      7559      7562      7564      7559      7562      7565
      7560      7559      7561      7560      7559      7562      7561      7559      7562
      7562      7565      7566      7562      7565      7567      7562      7565      7568
      7563      7562      7564      7563      7562      7565      7564      7562      7565
      7565      7568      7569      7565      7568      7570      7565      7568      7571
      7566      7565      7567      7566      7565      7568      7567      7565      7568
      7569      7568      7570      7569      7568      7571      7570      7568      7571
      7572      7576      7577      7572      7576      7578      7572      7576      7581
      7573      7572      7574      7573      7572      7575      7573      7572      7576
      7574      7572      7575      7574      7572      7576      7575      7572      7576
      7576      7578      7579      7576      7578      7580      7576      7581      7582
      7576      7581      7583      7576      7581      7587      7577      7576      7578
      7577      7576      7581      7578      7576      7581      7579      7578      7580
      7581      7587      7584      7582      7581      7583      7582      7581      7587
      7583      7581      7587      7584      7588      7589      7585      7584      7586
      7585      7584      7587      7585      7584      7588      7586      7584      7587
      7586      7584      7588      7587      7584      7588      7588      7589      7590
      7588      7589      7591      7588      7589      7592      7589      7592      7593
      7589      7592      7594      7589      7592      7600      7590      7589      7591
      7590      7589      7592      7591      7589      7592      7592      7594      7595
      7592      7600      7601      7592      7600      7602      7592      7600      7603
      7593      7592      7594      7593      7592      7600      7594      7592      7600
      7594      7595      7596      7594      7595      7597      7595      7597      7598
      7595      7597      7599      7595      7597      7609      7596      7595      7597
      7597      7609      7610      7597      7609      7611      7597      7609      7612
      7598      7597      7599      7598      7597      7609      7599      7597      7609
      7600      7603      7604      7601      7600      7602      7601      7600      7603
      7602      7600      7603      7603      7604      7605      7603      7604      7606
      7604      7606      7607      7604      7606      7608      7604      7606      7656
      7605      7604      7606      7606      7656      7657      7606      7656      7658
      7606      7656      7659      7607      7606      7608      7607      7606      7656
      7608      7606      7656      7609      7612      7613      7609      7612      7614
      7609      7612      7615      7610      7609      7611      7610      7609      7612
      7611      7609      7612      7612      7615      7616      7612      7615      7617
      7613      7612      7614      7613      7612      7615      7614      7612      7615
      7615      7617      7618      7615      7617      7619      7616      7615      7617
      7617      7619      7620      7617      7619      7621      7617      7619      7622
      7618      7617      7619      7619      7622      7623      7619      7622      7624
      7620      7619      7621      7620      7619      7622      7621      7619      7622
      7622      7624      7625      7622      7624      7626      7623      7622      7624
      7624      7626      7627      7624      7626      7628      7624      7626      7629
      7625      7624      7626      7626      7629      7630      7626      7629      7631
      7627      7626      7628      7627      7626      7629      7628      7626      7629
      7629      7631      7632      7629      7631      7633      7630      7629      7631
      7631      7633      7634      7631      7633      7635      7631      7633      7636
      7632      7631      7633      7633      7636      7637      7633      7636      7638
      7634      7633      7635      7634      7633      7636      7635      7633      7636
      7636      7638      7639      7636      7638      7640      7637      7636      7638
      7638      7640      7641      7638      7640      7642      7638      7640      7643
      7639      7638      7640      7640      7643      7644      7640      7643      7645
      7640      7643      7646      7641      7640      7642      7641      7640      7643
      7642      7640      7643      7643      7646      7647      7643      7646      7648
      7643      7646      7649      7644      7643      7645      7644      7643      7646
      7645      7643      7646      7646      7649      7650      7646      7649      7651
      7646      7649      7652      7647      7646      7648      7647      7646      7649
      7648      7646      7649      7649      7652      7653      7649      7652      7654
      7649      7652      7655      7650      7649      7651      7650      7649      7652
      7651      7649      7652      7653      7652      7654      7653      7652      7655
      7654      7652      7655      7656      7659      7660      7656      7659      7661
      7656      7659      7662      7657      7656      7658      7657      7656      7659
      7658      7656      7659      7659      7662      7663      7659      7662      7664
      7659      7662      7665      7660      7659      7661      7660      7659      7662
      7661      7659      7662      7662      7665      7666      7662      7665      7667
      7662      7665      7668      7663      7662      7664      7663      7662      7665
      7664      7662      7665      7665      7668      7669      7665      7668      7670
      7665      7668      7671      7666      7665      7667      7666      7665      7668
      7667      7665      7668      7668      7671      7672      7668      7671      7673
      7668      7671      7674      7669      7668      7670      7669      7668      7671
      7670      7668      7671      7671      7674      7675      7671      7674      7676
      7671      7674      7677      7672      7671      7673      7672      7671      7674
      7673      7671      7674      7674      7677      7678      7674      7677      7679
      7674      7677      7680      7675      7674      7676      7675      7674      7677
      7676      7674      7677      7677      7680      7681      7677      7680      7682
      7677      7680      7683      7678      7677      7679      7678      7677      7680
      7679      7677      7680      7680      7683      7684      7680      7683      7685
      7680      7683      7686      7681      7680      7682      7681      7680      7683
      7682      7680      7683      7683      7686      7687      7683      7686      7688
      7683      7686      7689      7684      7683      7685      7684      7683      7686
      7685      7683      7686      7686      7689      7690      7686      7689      7691
      7686      7689      7692      7687      7686      7688      7687      7686      7689
      7688      7686      7689      7689      7692      7693      7689      7692      7694
      7689      7692      7695      7690      7689      7691      7690      7689      7692
      7691      7689      7692      7692      7695      7696      7692      7695      7697
      7692      7695      7698      7693      7692      7694      7693      7692      7695
      7694      7692      7695      7695      7698      7699      7695      7698      7700
      7695      7698      7701      7696      7695      7697      7696      7695      7698
      7697      7695      7698      7698      7701      7702      7698      7701      7703
      7698      7701      7704      7699      7698      7700      7699      7698      7701
      7700      7698      7701      7702      7701      7703      7702      7701      7704
      7703      7701      7704      7705      7707      7708      7705      7709      7710
      7705      7709      7711      7705      7709      7712      7705      7751      7748
      7705      7751      7752      7705      7751      7753      7706      7705      7707
      7706      7705      7709      7706      7705      7751      7707      7705      7709
      7707      7705      7751      7709      7705      7751      7709      7712      7713
      7709      7712      7743      7710      7709      7711      7710      7709      7712
      7711      7709      7712      7712      7713      7714      7712      7713      7715
      7712      7743      7741      7712      7743      7744      7712      7743      7748
      7713      7712      7743      7713      7715      7716      7713      7715      7717
      7713      7715      7718      7714      7713      7715      7715      7718      7719
      7715      7718      7720      7715      7718      7741      7716      7715      7717
      7716      7715      7718      7717      7715      7718      7718      7720      7721
      7718      7720      7722      7718      7720      7730      7718      7741      7738
      7718      7741      7742      7718      7741      7743      7719      7718      7720
      7719      7718      7741      7720      7718      7741      7720      7722      7723
      7720      7722      7724      7720      7722      7725      7720      7730      7728
      7720      7730      7731      7720      7730      7735      7721      7720      7722
      7721      7720      7730      7722      7720      7730      7722      7725      7726
      7722      7725      7727      7722      7725      7728      7723      7722      7724
      7723      7722      7725      7724      7722      7725      7725      7728      7729
      7725      7728      7730      7725      7728      7754      7726      7725      7727
      7726      7725      7728      7727      7725      7728      7728      7730      7731
      7728      7730      7735      7728      7754      7755      7728      7754      7756
      7728      7754      7760      7729      7728      7730      7729      7728      7754
      7730      7728      7754      7730      7731      7732      7730      7731      7733
      7730      7731      7734      7730      7735      7736      7730      7735      7737
      7730      7735      7738      7731      7730      7735      7732      7731      7733
      7732      7731      7734      7733      7731      7734      7735      7738      7739
      7735      7738      7740      7735      7738      7741      7736      7735      7737
      7736      7735      7738      7737      7735      7738      7738      7741      7742
      7738      7741      7743      7739      7738      7740      7739      7738      7741
      7740      7738      7741      7741      7743      7744      7741      7743      7748
      7742      7741      7743      7743      7744      7745      7743      7744      7746
      7743      7744      7747      7743      7748      7749      7743      7748      7750
      7743      7748      7751      7744      7743      7748      7745      7744      7746
      7745      7744      7747      7746      7744      7747      7748      7751      7752
      7748      7751      7753      7749      7748      7750      7749      7748      7751
      7750      7748      7751      7752      7751      7753      7754      7756      7757
      7754      7756      7758      7754      7756      7759      7754      7760      7761
      7754      7760      7762      7754      7760      7763      7755      7754      7756
      7755      7754      7760      7756      7754      7760      7757      7756      7758
      7757      7756      7759      7758      7756      7759      7760      7763      7764
      7760      7763      7765      7760      7763      7766      7761      7760      7762
      7761      7760      7763      7762      7760      7763      7763      7766      7767
      7763      7766      7768      7763      7766      7769      7764      7763      7765
      7764      7763      7766      7765      7763      7766      7766      7769      7770
      7766      7769      7771      7766      7769      7775      7767      7766      7768
      7767      7766      7769      7768      7766      7769      7769      7771      7772
      7769      7771      7773      7769      7771      7774      7769      7775      7776
      7769      7775      7777      7769      7775      7778      7770      7769      7771
      7770      7769      7775      7771      7769      7775      7772      7771      7773
      7772      7771      7774      7773      7771      7774      7776      7775      7777
      7776      7775      7778      7777      7775      7778      7779      7780      7781
      7779      7780      7782      7779      7780      7795      7779      7783      7784
      7779      7783      7785      7779      7783      7786      7779      7787      7788
      7779      7787      7789      7779      7787      7790      7779      7791      7792
      7779      7791      7793      7779      7791      7794      7780      7779      7783
      7780      7779      7787      7780      7779      7791      7780      7795      7796
      7780      7795      7797      7780      7795      7801      7781      7780      7782
      7781      7780      7795      7782      7780      7795      7783      7779      7787
      7783      7779      7791      7784      7783      7785      7784      7783      7786
      7785      7783      7786      7787      7779      7791      7788      7787      7789
      7788      7787      7790      7789      7787      7790      7792      7791      7793
      7792      7791      7794      7793      7791      7794      7795      7801      7798
      7796      7795      7797      7796      7795      7801      7797      7795      7801
      7798      7802      7803      7799      7798      7800      7799      7798      7801
      7799      7798      7802      7800      7798      7801      7800      7798      7802
      7801      7798      7802      7802      7803      7804      7802      7803      7805
      7802      7803      7806      7803      7806      7807      7803      7806      7808
      7803      7806      7814      7804      7803      7805      7804      7803      7806
      7805      7803      7806      7806      7808      7809      7806      7814      7815
      7806      7814      7816      7806      7814      7817      7807      7806      7808
      7807      7806      7814      7808      7806      7814      7808      7809      7810
      7808      7809      7811      7809      7811      7812      7809      7811      7813
      7809      7811      7823      7810      7809      7811      7811      7823      7824
      7811      7823      7825      7811      7823      7826      7812      7811      7813
      7812      7811      7823      7813      7811      7823      7814      7817      7818
      7815      7814      7816      7815      7814      7817      7816      7814      7817
      7817      7818      7819      7817      7818      7820      7818      7820      7821
      7818      7820      7822      7818      7820      7870      7819      7818      7820
      7820      7870      7871      7820      7870      7872      7820      7870      7873
      7821      7820      7822      7821      7820      7870      7822      7820      7870
      7823      7826      7827      7823      7826      7828      7823      7826      7829
      7824      7823      7825      7824      7823      7826      7825      7823      7826
      7826      7829      7830      7826      7829      7831      7826      7829      7832
      7827      7826      7828      7827      7826      7829      7828      7826      7829
      7829      7832      7833      7829      7832      7834      7829      7832      7835
      7830      7829      7831      7830      7829      7832      7831      7829      7832
      7832      7835      7836      7832      7835      7837      7832      7835      7838
      7833      7832      7834      7833      7832      7835      7834      7832      7835
      7835      7838      7839      7835      7838      7840      7835      7838      7841
      7836      7835      7837      7836      7835      7838      7837      7835      7838
      7838      7841      7842      7838      7841      7843      7839      7838      7840
      7839      7838      7841      7840      7838      7841      7841      7843      7844
      7841      7843      7845      7842      7841      7843      7843      7845      7846
      7843      7845      7847      7843      7845      7848      7844      7843      7845
      7845      7848      7849      7845      7848      7850      7845      7848      7851
      7846      7845      7847      7846      7845      7848      7847      7845      7848
      7848      7851      7852      7848      7851      7853      7848      7851      7854
      7849      7848      7850      7849      7848      7851      7850      7848      7851
      7851      7854      7855      7851      7854      7856      7851      7854      7857
      7852      7851      7853      7852      7851      7854      7853      7851      7854
      7854      7857      7858      7854      7857      7859      7854      7857      7860
      7855      7854      7856      7855      7854      7857      7856      7854      7857
      7857      7860      7861      7857      7860      7862      7857      7860      7863
      7858      7857      7859      7858      7857      7860      7859      7857      7860
      7860      7863      7864      7860      7863      7865      7860      7863      7866
      7861      7860      7862      7861      7860      7863      7862      7860      7863
      7863      7866      7867      7863      7866      7868      7863      7866      7869
      7864      7863      7865      7864      7863      7866      7865      7863      7866
      7867      7866      7868      7867      7866      7869      7868      7866      7869
      7870      7873      7874      7870      7873      7875      7870      7873      7876
      7871      7870      7872      7871      7870      7873      7872      7870      7873
      7873      7876      7877      7873      7876      7878      7873      7876      7879
      7874      7873      7875      7874      7873      7876      7875      7873      7876
      7876      7879      7880      7876      7879      7881      7876      7879      7882
      7877      7876      7878      7877      7876      7879      7878      7876      7879
      7879      7882      7883      7879      7882      7884      7879      7882      7885
      7880      7879      7881      7880      7879      7882      7881      7879      7882
      7882      7885      7886      7882      7885      7887      7882      7885      7888
      7883      7882      7884      7883      7882      7885      7884      7882      7885
      7885      7888      7889      7885      7888      7890      7885      7888      7891
      7886      7885      7887      7886      7885      7888      7887      7885      7888
      7888      7891      7892      7888      7891      7893      7888      7891      7894
      7889      7888      7890      7889      7888      7891      7890      7888      7891
      7891      7894      7895      7891      7894      7896      7891      7894      7897
      7892      7891      7893      7892      7891      7894      7893      7891      7894
      7894      7897      7898      7894      7897      7899      7894      7897      7900
      7895      7894      7896      7895      7894      7897      7896      7894      7897
      7897      7900      7901      7897      7900      7902      7897      7900      7903
      7898      7897      7899      7898      7897      7900      7899      7897      7900
      7900      7903      7904      7900      7903      7905      7900      7903      7906
      7901      7900      7902      7901      7900      7903      7902      7900      7903
      7903      7906      7907      7903      7906      7908      7903      7906      7909
      7904      7903      7905      7904      7903      7906      7905      7903      7906
      7906      7909      7910      7906      7909      7911      7906      7909      7912
      7907      7906      7908      7907      7906      7909      7908      7906      7909
      7910      7909      7911      7910      7909      7912      7911      7909      7912
      7913      7914      7915      7913      7914      7916      7913      7914      7917
      7913      7918      7919      7913      7918      7920      7913      7918      7921
      7913      7922      7923      7913      7922      7924      7913      7922      7925
      7913      7926      7927      7913      7926      7928      7913      7926      7929
      7914      7913      7918      7914      7913      7922      7914      7913      7926
      7915      7914      7916      7915      7914      7917      7916      7914      7917
      7918      7913      7922      7918      7913      7926      7919      7918      7920
      7919      7918      7921      7920      7918      7921      7922      7913      7926
      7923      7922      7924      7923      7922      7925      7924      7922      7925
      7926      7929      7930      7926      7929      7931      7926      7929      7936
      7927      7926      7928      7927      7926      7929      7928      7926      7929
      7929      7936      7932      7930      7929      7931      7930      7929      7936
      7931      7929      7936      7932      7935      7937      7933      7932      7934
      7933      7932      7935      7933      7932      7936      7934      7932      7935
      7934      7932      7936      7935      7932      7936      7935      7937      7938
      7935      7937      7939      7935      7937      7942      7937      7942      7940
      7937      7942      7943      7937      7942      7944      7938      7937      7939
      7938      7937      7942      7939      7937      7942      7940      7942      7943
      7940      7942      7944      7940      7992      7993      7940      7992      7994
      7941      7940      7942      7941      7940      7992      7942      7940      7992
      7942      7944      7945      7942      7944      7946      7942      7944      7948
      7943      7942      7944      7944      7946      7947      7944      7948      7949
      7944      7948      7950      7945      7944      7946      7945      7944      7948
      7946      7944      7948      7948      7950      7951      7948      7950      7952
      7949      7948      7950      7950      7952      7953      7950      7952      7954
      7950      7952      7955      7951      7950      7952      7952      7955      7956
      7952      7955      7957      7952      7955      7958      7953      7952      7954
      7953      7952      7955      7954      7952      7955      7955      7958      7959
      7955      7958      7960      7955      7958      7961      7956      7955      7957
      7956      7955      7958      7957      7955      7958      7958      7961      7962
      7958      7961      7963      7958      7961      7964      7959      7958      7960
      7959      7958      7961      7960      7958      7961      7961      7964      7965
      7961      7964      7966      7961      7964      7967      7962      7961      7963
      7962      7961      7964      7963      7961      7964      7964      7967      7968
      7964      7967      7969      7964      7967      7970      7965      7964      7966
      7965      7964      7967      7966      7964      7967      7967      7970      7971
      7967      7970      7972      7967      7970      7973      7968      7967      7969
      7968      7967      7970      7969      7967      7970      7970      7973      7974
      7970      7973      7975      7970      7973      7976      7971      7970      7972
      7971      7970      7973      7972      7970      7973      7973      7976      7977
      7973      7976      7978      7973      7976      7979      7974      7973      7975
      7974      7973      7976      7975      7973      7976      7976      7979      7980
      7976      7979      7981      7976      7979      7982      7977      7976      7978
      7977      7976      7979      7978      7976      7979      7979      7982      7983
      7979      7982      7984      7979      7982      7985      7980      7979      7981
      7980      7979      7982      7981      7979      7982      7982      7985      7986
      7982      7985      7987      7982      7985      7988      7983      7982      7984
      7983      7982      7985      7984      7982      7985      7985      7988      7989
      7985      7988      7990      7985      7988      7991      7986      7985      7987
      7986      7985      7988      7987      7985      7988      7989      7988      7990
      7989      7988      7991      7990      7988      7991      7992      7994      7995
      7992      7994      7996      7992      7994      7997      7993      7992      7994
      7994      7997      7998      7994      7997      7999      7994      7997      8000
      7995      7994      7996      7995      7994      7997      7996      7994      7997
      7997      8000      8001      7997      8000      8002      7997      8000      8003
      7998      7997      7999      7998      7997      8000      7999      7997      8000
      8000      8003      8004      8000      8003      8005      8000      8003      8006
      8001      8000      8002      8001      8000      8003      8002      8000      8003
      8003      8006      8007      8003      8006      8008      8003      8006      8009
      8004      8003      8005      8004      8003      8006      8005      8003      8006
      8006      8009      8010      8006      8009      8011      8006      8009      8012
      8007      8006      8008      8007      8006      8009      8008      8006      8009
      8009      8012      8013      8009      8012      8014      8009      8012      8015
      8010      8009      8011      8010      8009      8012      8011      8009      8012
      8012      8015      8016      8012      8015      8017      8013      8012      8014
      8013      8012      8015      8014      8012      8015      8015      8017      8018
      8015      8017      8019      8016      8015      8017      8017      8019      8020
      8017      8019      8021      8017      8019      8022      8018      8017      8019
      8019      8022      8023      8019      8022      8024      8019      8022      8025
      8020      8019      8021      8020      8019      8022      8021      8019      8022
      8022      8025      8026      8022      8025      8027      8022      8025      8028
      8023      8022      8024      8023      8022      8025      8024      8022      8025
      8025      8028      8029      8025      8028      8030      8025      8028      8031
      8026      8025      8027      8026      8025      8028      8027      8025      8028
      8028      8031      8032      8028      8031      8033      8028      8031      8034
      8029      8028      8030      8029      8028      8031      8030      8028      8031
      8031      8034      8035      8031      8034      8036      8031      8034      8037
      8032      8031      8033      8032      8031      8034      8033      8031      8034
      8034      8037      8038      8034      8037      8039      8034      8037      8040
      8035      8034      8036      8035      8034      8037      8036      8034      8037
      8037      8040      8041      8037      8040      8042      8037      8040      8043
      8038      8037      8039      8038      8037      8040      8039      8037      8040
      8041      8040      8042      8041      8040      8043      8042      8040      8043
      8044      8048      8049      8044      8048      8050      8044      8048      8053
      8045      8044      8046      8045      8044      8047      8045      8044      8048
      8046      8044      8047      8046      8044      8048      8047      8044      8048
      8048      8050      8051      8048      8050      8052      8048      8053      8054
      8048      8053      8055      8048      8053      8059      8049      8048      8050
      8049      8048      8053      8050      8048      8053      8051      8050      8052
      8053      8059      8056      8054      8053      8055      8054      8053      8059
      8055      8053      8059      8056      8060      8061      8057      8056      8058
      8057      8056      8059      8057      8056      8060      8058      8056      8059
      8058      8056      8060      8059      8056      8060      8060      8061      8062
      8060      8061      8063      8060      8061      8064      8061      8064      8065
      8061      8064      8066      8061      8064      8072      8062      8061      8063
      8062      8061      8064      8063      8061      8064      8064      8066      8067
      8064      8072      8073      8064      8072      8074      8064      8072      8075
      8065      8064      8066      8065      8064      8072      8066      8064      8072
      8066      8067      8068      8066      8067      8069      8067      8069      8070
      8067      8069      8071      8067      8069      8081      8068      8067      8069
      8069      8081      8082      8069      8081      8083      8069      8081      8084
      8070      8069      8071      8070      8069      8081      8071      8069      8081
      8072      8075      8076      8073      8072      8074      8073      8072      8075
      8074      8072      8075      8075      8076      8077      8075      8076      8078
      8076      8078      8079      8076      8078      8080      8076      8078      8128
      8077      8076      8078      8078      8128      8129      8078      8128      8130
      8078      8128      8131      8079      8078      8080      8079      8078      8128
      8080      8078      8128      8081      8084      8085      8081      8084      8086
      8081      8084      8087      8082      8081      8083      8082      8081      8084
      8083      8081      8084      8084      8087      8088      8084      8087      8089
      8085      8084      8086      8085      8084      8087      8086      8084      8087
      8087      8089      8090      8087      8089      8091      8088      8087      8089
      8089      8091      8092      8089      8091      8093      8089      8091      8094
      8090      8089      8091      8091      8094      8095      8091      8094      8096
      8092      8091      8093      8092      8091      8094      8093      8091      8094
      8094      8096      8097      8094      8096      8098      8095      8094      8096
      8096      8098      8099      8096      8098      8100      8096      8098      8101
      8097      8096      8098      8098      8101      8102      8098      8101      8103
      8099      8098      8100      8099      8098      8101      8100      8098      8101
      8101      8103      8104      8101      8103      8105      8102      8101      8103
      8103      8105      8106      8103      8105      8107      8103      8105      8108
      8104      8103      8105      8105      8108      8109      8105      8108      8110
      8106      8105      8107      8106      8105      8108      8107      8105      8108
      8108      8110      8111      8108      8110      8112      8109      8108      8110
      8110      8112      8113      8110      8112      8114      8110      8112      8115
      8111      8110      8112      8112      8115      8116      8112      8115      8117
      8112      8115      8118      8113      8112      8114      8113      8112      8115
      8114      8112      8115      8115      8118      8119      8115      8118      8120
      8115      8118      8121      8116      8115      8117      8116      8115      8118
      8117      8115      8118      8118      8121      8122      8118      8121      8123
      8118      8121      8124      8119      8118      8120      8119      8118      8121
      8120      8118      8121      8121      8124      8125      8121      8124      8126
      8121      8124      8127      8122      8121      8123      8122      8121      8124
      8123      8121      8124      8125      8124      8126      8125      8124      8127
      8126      8124      8127      8128      8131      8132      8128      8131      8133
      8128      8131      8134      8129      8128      8130      8129      8128      8131
      8130      8128      8131      8131      8134      8135      8131      8134      8136
      8131      8134      8137      8132      8131      8133      8132      8131      8134
      8133      8131      8134      8134      8137      8138      8134      8137      8139
      8134      8137      8140      8135      8134      8136      8135      8134      8137
      8136      8134      8137      8137      8140      8141      8137      8140      8142
      8137      8140      8143      8138      8137      8139      8138      8137      8140
      8139      8137      8140      8140      8143      8144      8140      8143      8145
      8140      8143      8146      8141      8140      8142      8141      8140      8143
      8142      8140      8143      8143      8146      8147      8143      8146      8148
      8143      8146      8149      8144      8143      8145      8144      8143      8146
      8145      8143      8146      8146      8149      8150      8146      8149      8151
      8146      8149      8152      8147      8146      8148      8147      8146      8149
      8148      8146      8149      8149      8152      8153      8149      8152      8154
      8149      8152      8155      8150      8149      8151      8150      8149      8152
      8151      8149      8152      8152      8155      8156      8152      8155      8157
      8152      8155      8158      8153      8152      8154      8153      8152      8155
      8154      8152      8155      8155      8158      8159      8155      8158      8160
      8155      8158      8161      8156      8155      8157      8156      8155      8158
      8157      8155      8158      8158      8161      8162      8158      8161      8163
      8158      8161      8164      8159      8158      8160      8159      8158      8161
      8160      8158      8161      8161      8164      8165      8161      8164      8166
      8161      8164      8167      8162      8161      8163      8162      8161      8164
      8163      8161      8164      8164      8167      8168      8164      8167      8169
      8164      8167      8170      8165      8164      8166      8165      8164      8167
      8166      8164      8167      8167      8170      8171      8167      8170      8172
      8167      8170      8173      8168      8167      8169      8168      8167      8170
      8169      8167      8170      8170      8173      8174      8170      8173      8175
      8170      8173      8176      8171      8170      8172      8171      8170      8173
      8172      8170      8173      8174      8173      8175      8174      8173      8176
      8175      8173      8176      8177      8178      8179      8177      8178      8180
      8177      8178      8181      8177      8182      8183      8177      8182      8184
      8177      8182      8185      8177      8186      8187      8177      8186      8188
      8177      8186      8189      8177      8190      8191      8177      8190      8192
      8177      8190      8193      8178      8177      8182      8178      8177      8186
      8178      8177      8190      8179      8178      8180      8179      8178      8181
      8180      8178      8181      8182      8177      8186      8182      8177      8190
      8183      8182      8184      8183      8182      8185      8184      8182      8185
      8186      8177      8190      8187      8186      8188      8187      8186      8189
      8188      8186      8189      8190      8193      8194      8190      8193      8195
      8190      8193      8200      8191      8190      8192      8191      8190      8193
      8192      8190      8193      8193      8200      8196      8194      8193      8195
      8194      8193      8200      8195      8193      8200      8196      8199      8201
      8197      8196      8198      8197      8196      8199      8197      8196      8200
      8198      8196      8199      8198      8196      8200      8199      8196      8200
      8199      8201      8202      8199      8201      8203      8199      8201      8206
      8201      8206      8204      8201      8206      8207      8201      8206      8208
      8202      8201      8203      8202      8201      8206      8203      8201      8206
      8204      8206      8207      8204      8206      8208      8204      8256      8257
      8204      8256      8258      8205      8204      8206      8205      8204      8256
      8206      8204      8256      8206      8208      8209      8206      8208      8210
      8206      8208      8212      8207      8206      8208      8208      8210      8211
      8208      8212      8213      8208      8212      8214      8209      8208      8210
      8209      8208      8212      8210      8208      8212      8212      8214      8215
      8212      8214      8216      8213      8212      8214      8214      8216      8217
      8214      8216      8218      8214      8216      8219      8215      8214      8216
      8216      8219      8220      8216      8219      8221      8216      8219      8222
      8217      8216      8218      8217      8216      8219      8218      8216      8219
      8219      8222      8223      8219      8222      8224      8219      8222      8225
      8220      8219      8221      8220      8219      8222      8221      8219      8222
      8222      8225      8226      8222      8225      8227      8222      8225      8228
      8223      8222      8224      8223      8222      8225      8224      8222      8225
      8225      8228      8229      8225      8228      8230      8225      8228      8231
      8226      8225      8227      8226      8225      8228      8227      8225      8228
      8228      8231      8232      8228      8231      8233      8228      8231      8234
      8229      8228      8230      8229      8228      8231      8230      8228      8231
      8231      8234      8235      8231      8234      8236      8231      8234      8237
      8232      8231      8233      8232      8231      8234      8233      8231      8234
      8234      8237      8238      8234      8237      8239      8234      8237      8240
      8235      8234      8236      8235      8234      8237      8236      8234      8237
      8237      8240      8241      8237      8240      8242      8237      8240      8243
      8238      8237      8239      8238      8237      8240      8239      8237      8240
      8240      8243      8244      8240      8243      8245      8240      8243      8246
      8241      8240      8242      8241      8240      8243      8242      8240      8243
      8243      8246      8247      8243      8246      8248      8243      8246      8249
      8244      8243      8245      8244      8243      8246      8245      8243      8246
      8246      8249      8250      8246      8249      8251      8246      8249      8252
      8247      8246      8248      8247      8246      8249      8248      8246      8249
      8249      8252      8253      8249      8252      8254      8249      8252      8255
      8250      8249      8251      8250      8249      8252      8251      8249      8252
      8253      8252      8254      8253      8252      8255      8254      8252      8255
      8256      8258      8259      8256      8258      8260      8256      8258      8261
      8257      8256      8258      8258      8261      8262      8258      8261      8263
      8258      8261      8264      8259      8258      8260      8259      8258      8261
      8260      8258      8261      8261      8264      8265      8261      8264      8266
      8261      8264      8267      8262      8261      8263      8262      8261      8264
      8263      8261      8264      8264      8267      8268      8264      8267      8269
      8264      8267      8270      8265      8264      8266      8265      8264      8267
      8266      8264      8267      8267      8270      8271      8267      8270      8272
      8267      8270      8273      8268      8267      8269      8268      8267      8270
      8269      8267      8270      8270      8273      8274      8270      8273      8275
      8270      8273      8276      8271      8270      8272      8271      8270      8273
      8272      8270      8273      8273      8276      8277      8273      8276      8278
      8273      8276      8279      8274      8273      8275      8274      8273      8276
      8275      8273      8276      8276      8279      8280      8276      8279      8281
      8277      8276      8278      8277      8276      8279      8278      8276      8279
      8279      8281      8282      8279      8281      8283      8280      8279      8281
      8281      8283      8284      8281      8283      8285      8281      8283      8286
      8282      8281      8283      8283      8286      8287      8283      8286      8288
      8283      8286      8289      8284      8283      8285      8284      8283      8286
      8285      8283      8286      8286      8289      8290      8286      8289      8291
      8286      8289      8292      8287      8286      8288      8287      8286      8289
      8288      8286      8289      8289      8292      8293      8289      8292      8294
      8289      8292      8295      8290      8289      8291      8290      8289      8292
      8291      8289      8292      8292      8295      8296      8292      8295      8297
      8292      8295      8298      8293      8292      8294      8293      8292      8295
      8294      8292      8295      8295      8298      8299      8295      8298      8300
      8295      8298      8301      8296      8295      8297      8296      8295      8298
      8297      8295      8298      8298      8301      8302      8298      8301      8303
      8298      8301      8304      8299      8298      8300      8299      8298      8301
      8300      8298      8301      8301      8304      8305      8301      8304      8306
      8301      8304      8307      8302      8301      8303      8302      8301      8304
      8303      8301      8304      8305      8304      8306      8305      8304      8307
      8306      8304      8307      8308      8310      8311      8308      8312      8313
      8308      8312      8314      8308      8312      8315      8308      8354      8351
      8308      8354      8355      8308      8354      8356      8309      8308      8310
      8309      8308      8312      8309      8308      8354      8310      8308      8312
      8310      8308      8354      8312      8308      8354      8312      8315      8316
      8312      8315      8346      8313      8312      8314      8313      8312      8315
      8314      8312      8315      8315      8316      8317      8315      8316      8318
      8315      8346      8344      8315      8346      8347      8315      8346      8351
      8316      8315      8346      8316      8318      8319      8316      8318      8320
      8316      8318      8321      8317      8316      8318      8318      8321      8322
      8318      8321      8323      8318      8321      8344      8319      8318      8320
      8319      8318      8321      8320      8318      8321      8321      8323      8324
      8321      8323      8325      8321      8323      8333      8321      8344      8341
      8321      8344      8345      8321      8344      8346      8322      8321      8323
      8322      8321      8344      8323      8321      8344      8323      8325      8326
      8323      8325      8327      8323      8325      8328      8323      8333      8331
      8323      8333      8334      8323      8333      8338      8324      8323      8325
      8324      8323      8333      8325      8323      8333      8325      8328      8329
      8325      8328      8330      8325      8328      8331      8326      8325      8327
      8326      8325      8328      8327      8325      8328      8328      8331      8332
      8328      8331      8333      8328      8331      8357      8329      8328      8330
      8329      8328      8331      8330      8328      8331      8331      8333      8334
      8331      8333      8338      8331      8357      8358      8331      8357      8359
      8331      8357      8363      8332      8331      8333      8332      8331      8357
      8333      8331      8357      8333      8334      8335      8333      8334      8336
      8333      8334      8337      8333      8338      8339      8333      8338      8340
      8333      8338      8341      8334      8333      8338      8335      8334      8336
      8335      8334      8337      8336      8334      8337      8338      8341      8342
      8338      8341      8343      8338      8341      8344      8339      8338      8340
      8339      8338      8341      8340      8338      8341      8341      8344      8345
      8341      8344      8346      8342      8341      8343      8342      8341      8344
      8343      8341      8344      8344      8346      8347      8344      8346      8351
      8345      8344      8346      8346      8347      8348      8346      8347      8349
      8346      8347      8350      8346      8351      8352      8346      8351      8353
      8346      8351      8354      8347      8346      8351      8348      8347      8349
      8348      8347      8350      8349      8347      8350      8351      8354      8355
      8351      8354      8356      8352      8351      8353      8352      8351      8354
      8353      8351      8354      8355      8354      8356      8357      8359      8360
      8357      8359      8361      8357      8359      8362      8357      8363      8364
      8357      8363      8365      8357      8363      8366      8358      8357      8359
      8358      8357      8363      8359      8357      8363      8360      8359      8361
      8360      8359      8362      8361      8359      8362      8363      8366      8367
      8363      8366      8368      8363      8366      8369      8364      8363      8365
      8364      8363      8366      8365      8363      8366      8366      8369      8370
      8366      8369      8371      8366      8369      8372      8367      8366      8368
      8367      8366      8369      8368      8366      8369      8369      8372      8373
      8369      8372      8374      8369      8372      8378      8370      8369      8371
      8370      8369      8372      8371      8369      8372      8372      8374      8375
      8372      8374      8376      8372      8374      8377      8372      8378      8379
      8372      8378      8380      8372      8378      8381      8373      8372      8374
      8373      8372      8378      8374      8372      8378      8375      8374      8376
      8375      8374      8377      8376      8374      8377      8379      8378      8380
      8379      8378      8381      8380      8378      8381      8382      8383      8384
      8382      8383      8385      8382      8383      8398      8382      8386      8387
      8382      8386      8388      8382      8386      8389      8382      8390      8391
      8382      8390      8392      8382      8390      8393      8382      8394      8395
      8382      8394      8396      8382      8394      8397      8383      8382      8386
      8383      8382      8390      8383      8382      8394      8383      8398      8399
      8383      8398      8400      8383      8398      8404      8384      8383      8385
      8384      8383      8398      8385      8383      8398      8386      8382      8390
      8386      8382      8394      8387      8386      8388      8387      8386      8389
      8388      8386      8389      8390      8382      8394      8391      8390      8392
      8391      8390      8393      8392      8390      8393      8395      8394      8396
      8395      8394      8397      8396      8394      8397      8398      8404      8401
      8399      8398      8400      8399      8398      8404      8400      8398      8404
      8401      8405      8406      8402      8401      8403      8402      8401      8404
      8402      8401      8405      8403      8401      8404      8403      8401      8405
      8404      8401      8405      8405      8406      8407      8405      8406      8408
      8405      8406      8409      8406      8409      8410      8406      8409      8411
      8406      8409      8417      8407      8406      8408      8407      8406      8409
      8408      8406      8409      8409      8411      8412      8409      8417      8418
      8409      8417      8419      8409      8417      8420      8410      8409      8411
      8410      8409      8417      8411      8409      8417      8411      8412      8413
      8411      8412      8414      8412      8414      8415      8412      8414      8416
      8412      8414      8426      8413      8412      8414      8414      8426      8427
      8414      8426      8428      8414      8426      8429      8415      8414      8416
      8415      8414      8426      8416      8414      8426      8417      8420      8421
      8418      8417      8419      8418      8417      8420      8419      8417      8420
      8420      8421      8422      8420      8421      8423      8421      8423      8424
      8421      8423      8425      8421      8423      8473      8422      8421      8423
      8423      8473      8474      8423      8473      8475      8423      8473      8476
      8424      8423      8425      8424      8423      8473      8425      8423      8473
      8426      8429      8430      8426      8429      8431      8426      8429      8432
      8427      8426      8428      8427      8426      8429      8428      8426      8429
      8429      8432      8433      8429      8432      8434      8430      8429      8431
      8430      8429      8432      8431      8429      8432      8432      8434      8435
      8432      8434      8436      8433      8432      8434      8434      8436      8437
      8434      8436      8438      8434      8436      8439      8435      8434      8436
      8436      8439      8440      8436      8439      8441      8437      8436      8438
      8437      8436      8439      8438      8436      8439      8439      8441      8442
      8439      8441      8443      8440      8439      8441      8441      8443      8444
      8441      8443      8445      8441      8443      8446      8442      8441      8443
      8443      8446      8447      8443      8446      8448      8444      8443      8445
      8444      8443      8446      8445      8443      8446      8446      8448      8449
      8446      8448      8450      8447      8446      8448      8448      8450      8451
      8448      8450      8452      8448      8450      8453      8449      8448      8450
      8450      8453      8454      8450      8453      8455      8451      8450      8452
      8451      8450      8453      8452      8450      8453      8453      8455      8456
      8453      8455      8457      8454      8453      8455      8455      8457      8458
      8455      8457      8459      8455      8457      8460      8456      8455      8457
      8457      8460      8461      8457      8460      8462      8457      8460      8463
      8458      8457      8459      8458      8457      8460      8459      8457      8460
      8460      8463      8464      8460      8463      8465      8460      8463      8466
      8461      8460      8462      8461      8460      8463      8462      8460      8463
      8463      8466      8467      8463      8466      8468      8463      8466      8469
      8464      8463      8465      8464      8463      8466      8465      8463      8466
      8466      8469      8470      8466      8469      8471      8466      8469      8472
      8467      8466      8468      8467      8466      8469      8468      8466      8469
      8470      8469      8471      8470      8469      8472      8471      8469      8472
      8473      8476      8477      8473      8476      8478      8473      8476      8479
      8474      8473      8475      8474      8473      8476      8475      8473      8476
      8476      8479      8480      8476      8479      8481      8476      8479      8482
      8477      8476      8478      8477      8476      8479      8478      8476      8479
      8479      8482      8483      8479      8482      8484      8479      8482      8485
      8480      8479      8481      8480      8479      8482      8481      8479      8482
      8482      8485      8486      8482      8485      8487      8482      8485      8488
      8483      8482      8484      8483      8482      8485      8484      8482      8485
      8485      8488      8489      8485      8488      8490      8485      8488      8491
      8486      8485      8487      8486      8485      8488      8487      8485      8488
      8488      8491      8492      8488      8491      8493      8488      8491      8494
      8489      8488      8490      8489      8488      8491      8490      8488      8491
      8491      8494      8495      8491      8494      8496      8491      8494      8497
      8492      8491      8493      8492      8491      8494      8493      8491      8494
      8494      8497      8498      8494      8497      8499      8494      8497      8500
      8495      8494      8496      8495      8494      8497      8496      8494      8497
      8497      8500      8501      8497      8500      8502      8497      8500      8503
      8498      8497      8499      8498      8497      8500      8499      8497      8500
      8500      8503      8504      8500      8503      8505      8500      8503      8506
      8501      8500      8502      8501      8500      8503      8502      8500      8503
      8503      8506      8507      8503      8506      8508      8503      8506      8509
      8504      8503      8505      8504      8503      8506      8505      8503      8506
      8506      8509      8510      8506      8509      8511      8506      8509      8512
      8507      8506      8508      8507      8506      8509      8508      8506      8509
      8509      8512      8513      8509      8512      8514      8509      8512      8515
      8510      8509      8511      8510      8509      8512      8511      8509      8512
      8512      8515      8516      8512      8515      8517      8512      8515      8518
      8513      8512      8514      8513      8512      8515      8514      8512      8515
      8515      8518      8519      8515      8518      8520      8515      8518      8521
      8516      8515      8517      8516      8515      8518      8517      8515      8518
      8519      8518      8520      8519      8518      8521      8520      8518      8521
      8522      8524      8525      8522      8526      8527      8522      8526      8528
      8522      8526      8529      8522      8568      8565      8522      8568      8569
      8522      8568      8570      8523      8522      8524      8523      8522      8526
      8523      8522      8568      8524      8522      8526      8524      8522      8568
      8526      8522      8568      8526      8529      8530      8526      8529      8560
      8527      8526      8528      8527      8526      8529      8528      8526      8529
      8529      8530      8531      8529      8530      8532      8529      8560      8558
      8529      8560      8561      8529      8560      8565      8530      8529      8560
      8530      8532      8533      8530      8532      8534      8530      8532      8535
      8531      8530      8532      8532      8535      8536      8532      8535      8537
      8532      8535      8558      8533      8532      8534      8533      8532      8535
      8534      8532      8535      8535      8537      8538      8535      8537      8539
      8535      8537      8547      8535      8558      8555      8535      8558      8559
      8535      8558      8560      8536      8535      8537      8536      8535      8558
      8537      8535      8558      8537      8539      8540      8537      8539      8541
      8537      8539      8542      8537      8547      8545      8537      8547      8548
      8537      8547      8552      8538      8537      8539      8538      8537      8547
      8539      8537      8547      8539      8542      8543      8539      8542      8544
      8539      8542      8545      8540      8539      8541      8540      8539      8542
      8541      8539      8542      8542      8545      8546      8542      8545      8547
      8542      8545      8571      8543      8542      8544      8543      8542      8545
      8544      8542      8545      8545      8547      8548      8545      8547      8552
      8545      8571      8572      8545      8571      8573      8545      8571      8577
      8546      8545      8547      8546      8545      8571      8547      8545      8571
      8547      8548      8549      8547      8548      8550      8547      8548      8551
      8547      8552      8553      8547      8552      8554      8547      8552      8555
      8548      8547      8552      8549      8548      8550      8549      8548      8551
      8550      8548      8551      8552      8555      8556      8552      8555      8557
      8552      8555      8558      8553      8552      8554      8553      8552      8555
      8554      8552      8555      8555      8558      8559      8555      8558      8560
      8556      8555      8557      8556      8555      8558      8557      8555      8558
      8558      8560      8561      8558      8560      8565      8559      8558      8560
      8560      8561      8562      8560      8561      8563      8560      8561      8564
      8560      8565      8566      8560      8565      8567      8560      8565      8568
      8561      8560      8565      8562      8561      8563      8562      8561      8564
      8563      8561      8564      8565      8568      8569      8565      8568      8570
      8566      8565      8567      8566      8565      8568      8567      8565      8568
      8569      8568      8570      8571      8573      8574      8571      8573      8575
      8571      8573      8576      8571      8577      8578      8571      8577      8579
      8571      8577      8580      8572      8571      8573      8572      8571      8577
      8573      8571      8577      8574      8573      8575      8574      8573      8576
      8575      8573      8576      8577      8580      8581      8577      8580      8582
      8577      8580      8583      8578      8577      8579      8578      8577      8580
      8579      8577      8580      8580      8583      8584      8580      8583      8585
      8580      8583      8586      8581      8580      8582      8581      8580      8583
      8582      8580      8583      8583      8586      8587      8583      8586      8588
      8583      8586      8592      8584      8583      8585      8584      8583      8586
      8585      8583      8586      8586      8588      8589      8586      8588      8590
      8586      8588      8591      8586      8592      8593      8586      8592      8594
      8586      8592      8595      8587      8586      8588      8587      8586      8592
      8588      8586      8592      8589      8588      8590      8589      8588      8591
      8590      8588      8591      8593      8592      8594      8593      8592      8595
      8594      8592      8595      8596      8600      8601      8596      8600      8602
      8596      8600      8605      8597      8596      8598      8597      8596      8599
      8597      8596      8600      8598      8596      8599      8598      8596      8600
      8599      8596      8600      8600      8602      8603      8600      8602      8604
      8600      8605      8606      8600      8605      8607      8600      8605      8611
      8601      8600      8602      8601      8600      8605      8602      8600      8605
      8603      8602      8604      8605      8611      8608      8606      8605      8607
      8606      8605      8611      8607      8605      8611      8608      8612      8613
      8609      8608      8610      8609      8608      8611      8609      8608      8612
      8610      8608      8611      8610      8608      8612      8611      8608      8612
      8612      8613      8614      8612      8613      8615      8612      8613      8616
      8613      8616      8617      8613      8616      8618      8613      8616      8624
      8614      8613      8615      8614      8613      8616      8615      8613      8616
      8616      8618      8619      8616      8624      8625      8616      8624      8626
      8616      8624      8627      8617      8616      8618      8617      8616      8624
      8618      8616      8624      8618      8619      8620      8618      8619      8621
      8619      8621      8622      8619      8621      8623      8619      8621      8633
      8620      8619      8621      8621      8633      8634      8621      8633      8635
      8621      8633      8636      8622      8621      8623      8622      8621      8633
      8623      8621      8633      8624      8627      8628      8625      8624      8626
      8625      8624      8627      8626      8624      8627      8627      8628      8629
      8627      8628      8630      8628      8630      8631      8628      8630      8632
      8628      8630      8680      8629      8628      8630      8630      8680      8681
      8630      8680      8682      8630      8680      8683      8631      8630      8632
      8631      8630      8680      8632      8630      8680      8633      8636      8637
      8633      8636      8638      8633      8636      8639      8634      8633      8635
      8634      8633      8636      8635      8633      8636      8636      8639      8640
      8636      8639      8641      8637      8636      8638      8637      8636      8639
      8638      8636      8639      8639      8641      8642      8639      8641      8643
      8640      8639      8641      8641      8643      8644      8641      8643      8645
      8641      8643      8646      8642      8641      8643      8643      8646      8647
      8643      8646      8648      8644      8643      8645      8644      8643      8646
      8645      8643      8646      8646      8648      8649      8646      8648      8650
      8647      8646      8648      8648      8650      8651      8648      8650      8652
      8648      8650      8653      8649      8648      8650      8650      8653      8654
      8650      8653      8655      8651      8650      8652      8651      8650      8653
      8652      8650      8653      8653      8655      8656      8653      8655      8657
      8654      8653      8655      8655      8657      8658      8655      8657      8659
      8655      8657      8660      8656      8655      8657      8657      8660      8661
      8657      8660      8662      8658      8657      8659      8658      8657      8660
      8659      8657      8660      8660      8662      8663      8660      8662      8664
      8661      8660      8662      8662      8664      8665      8662      8664      8666
      8662      8664      8667      8663      8662      8664      8664      8667      8668
      8664      8667      8669      8664      8667      8670      8665      8664      8666
      8665      8664      8667      8666      8664      8667      8667      8670      8671
      8667      8670      8672      8667      8670      8673      8668      8667      8669
      8668      8667      8670      8669      8667      8670      8670      8673      8674
      8670      8673      8675      8670      8673      8676      8671      8670      8672
      8671      8670      8673      8672      8670      8673      8673      8676      8677
      8673      8676      8678      8673      8676      8679      8674      8673      8675
      8674      8673      8676      8675      8673      8676      8677      8676      8678
      8677      8676      8679      8678      8676      8679      8680      8683      8684
      8680      8683      8685      8680      8683      8686      8681      8680      8682
      8681      8680      8683      8682      8680      8683      8683      8686      8687
      8683      8686      8688      8683      8686      8689      8684      8683      8685
      8684      8683      8686      8685      8683      8686      8686      8689      8690
      8686      8689      8691      8686      8689      8692      8687      8686      8688
      8687      8686      8689      8688      8686      8689      8689      8692      8693
      8689      8692      8694      8689      8692      8695      8690      8689      8691
      8690      8689      8692      8691      8689      8692      8692      8695      8696
      8692      8695      8697      8692      8695      8698      8693      8692      8694
      8693      8692      8695      8694      8692      8695      8695      8698      8699
      8695      8698      8700      8695      8698      8701      8696      8695      8697
      8696      8695      8698      8697      8695      8698      8698      8701      8702
      8698      8701      8703      8698      8701      8704      8699      8698      8700
      8699      8698      8701      8700      8698      8701      8701      8704      8705
      8701      8704      8706      8701      8704      8707      8702      8701      8703
      8702      8701      8704      8703      8701      8704      8704      8707      8708
      8704      8707      8709      8704      8707      8710      8705      8704      8706
      8705      8704      8707      8706      8704      8707      8707      8710      8711
      8707      8710      8712      8707      8710      8713      8708      8707      8709
      8708      8707      8710      8709      8707      8710      8710      8713      8714
      8710      8713      8715      8710      8713      8716      8711      8710      8712
      8711      8710      8713      8712      8710      8713      8713      8716      8717
      8713      8716      8718      8713      8716      8719      8714      8713      8715
      8714      8713      8716      8715      8713      8716      8716      8719      8720
      8716      8719      8721      8716      8719      8722      8717      8716      8718
      8717      8716      8719      8718      8716      8719      8719      8722      8723
      8719      8722      8724      8719      8722      8725      8720      8719      8721
      8720      8719      8722      8721      8719      8722      8722      8725      8726
      8722      8725      8727      8722      8725      8728      8723      8722      8724
      8723      8722      8725      8724      8722      8725      8726      8725      8727
      8726      8725      8728      8727      8725      8728      8729      8730      8731
      8729      8730      8732      8729      8730      8733      8729      8734      8735
      8729      8734      8736      8729      8734      8737      8729      8738      8739
      8729      8738      8740      8729      8738      8741      8729      8742      8743
      8729      8742      8744      8729      8742      8745      8730      8729      8734
      8730      8729      8738      8730      8729      8742      8731      8730      8732
      8731      8730      8733      8732      8730      8733      8734      8729      8738
      8734      8729      8742      8735      8734      8736      8735      8734      8737
      8736      8734      8737      8738      8729      8742      8739      8738      8740
      8739      8738      8741      8740      8738      8741      8742      8745      8746
      8742      8745      8747      8742      8745      8752      8743      8742      8744
      8743      8742      8745      8744      8742      8745      8745      8752      8748
      8746      8745      8747      8746      8745      8752      8747      8745      8752
      8748      8751      8753      8749      8748      8750      8749      8748      8751
      8749      8748      8752      8750      8748      8751      8750      8748      8752
      8751      8748      8752      8751      8753      8754      8751      8753      8755
      8751      8753      8758      8753      8758      8756      8753      8758      8759
      8753      8758      8760      8754      8753      8755      8754      8753      8758
      8755      8753      8758      8756      8758      8759      8756      8758      8760
      8756      8808      8809      8756      8808      8810      8757      8756      8758
      8757      8756      8808      8758      8756      8808      8758      8760      8761
      8758      8760      8762      8758      8760      8764      8759      8758      8760
      8760      8762      8763      8760      8764      8765      8760      8764      8766
      8761      8760      8762      8761      8760      8764      8762      8760      8764
      8764      8766      8767      8764      8766      8768      8765      8764      8766
      8766      8768      8769      8766      8768      8770      8766      8768      8771
      8767      8766      8768      8768      8771      8772      8768      8771      8773
      8768      8771      8774      8769      8768      8770      8769      8768      8771
      8770      8768      8771      8771      8774      8775      8771      8774      8776
      8771      8774      8777      8772      8771      8773      8772      8771      8774
      8773      8771      8774      8774      8777      8778      8774      8777      8779
      8774      8777      8780      8775      8774      8776      8775      8774      8777
      8776      8774      8777      8777      8780      8781      8777      8780      8782
      8777      8780      8783      8778      8777      8779      8778      8777      8780
      8779      8777      8780      8780      8783      8784      8780      8783      8785
      8780      8783      8786      8781      8780      8782      8781      8780      8783
      8782      8780      8783      8783      8786      8787      8783      8786      8788
      8783      8786      8789      8784      8783      8785      8784      8783      8786
      8785      8783      8786      8786      8789      8790      8786      8789      8791
      8786      8789      8792      8787      8786      8788      8787      8786      8789
      8788      8786      8789      8789      8792      8793      8789      8792      8794
      8789      8792      8795      8790      8789      8791      8790      8789      8792
      8791      8789      8792      8792      8795      8796      8792      8795      8797
      8792      8795      8798      8793      8792      8794      8793      8792      8795
      8794      8792      8795      8795      8798      8799      8795      8798      8800
      8795      8798      8801      8796      8795      8797      8796      8795      8798
      8797      8795      8798      8798      8801      8802      8798      8801      8803
      8798      8801      8804      8799      8798      8800      8799      8798      8801
      8800      8798      8801      8801      8804      8805      8801      8804      8806
      8801      8804      8807      8802      8801      8803      8802      8801      8804
      8803      8801      8804      8805      8804      8806      8805      8804      8807
      8806      8804      8807      8808      8810      8811      8808      8810      8812
      8808      8810      8813      8809      8808      8810      8810      8813      8814
      8810      8813      8815      8810      8813      8816      8811      8810      8812
      8811      8810      8813      8812      8810      8813      8813      8816      8817
      8813      8816      8818      8813      8816      8819      8814      8813      8815
      8814      8813      8816      8815      8813      8816      8816      8819      8820
      8816      8819      8821      8816      8819      8822      8817      8816      8818
      8817      8816      8819      8818      8816      8819      8819      8822      8823
      8819      8822      8824      8819      8822      8825      8820      8819      8821
      8820      8819      8822      8821      8819      8822      8822      8825      8826
      8822      8825      8827      8822      8825      8828      8823      8822      8824
      8823      8822      8825      8824      8822      8825      8825      8828      8829
      8825      8828      8830      8825      8828      8831      8826      8825      8827
      8826      8825      8828      8827      8825      8828      8828      8831      8832
      8828      8831      8833      8829      8828      8830      8829      8828      8831
      8830      8828      8831      8831      8833      8834      8831      8833      8835
      8832      8831      8833      8833      8835      8836      8833      8835      8837
      8833      8835      8838      8834      8833      8835      8835      8838      8839
      8835      8838      8840      8835      8838      8841      8836      8835      8837
      8836      8835      8838      8837      8835      8838      8838      8841      8842
      8838      8841      8843      8838      8841      8844      8839      8838      8840
      8839      8838      8841      8840      8838      8841      8841      8844      8845
      8841      8844      8846      8841      8844      8847      8842      8841      8843
      8842      8841      8844      8843      8841      8844      8844      8847      8848
      8844      8847      8849      8844      8847      8850      8845      8844      8846
      8845      8844      8847      8846      8844      8847      8847      8850      8851
      8847      8850      8852      8847      8850      8853      8848      8847      8849
      8848      8847      8850      8849      8847      8850      8850      8853      8854
      8850      8853      8855      8850      8853      8856      8851      8850      8852
      8851      8850      8853      8852      8850      8853      8853      8856      8857
      8853      8856      8858      8853      8856      8859      8854      8853      8855
      8854      8853      8856      8855      8853      8856      8857      8856      8858
      8857      8856      8859      8858      8856      8859      8860      8864      8865
      8860      8864      8866      8860      8864      8867      8861      8860      8862
      8861      8860      8863      8861      8860      8864      8862      8860      8863
      8862      8860      8864      8863      8860      8864      8864      8867      8868
      8864      8867      8869      8864      8867      8873      8865      8864      8866
      8865      8864      8867      8866      8864      8867      8867      8873      8870
      8868      8867      8869      8868      8867      8873      8869      8867      8873
      8870      8874      8875      8871      8870      8872      8871      8870      8873
      8871      8870      8874      8872      8870      8873      8872      8870      8874
      8873      8870      8874      8874      8875      8876      8874      8875      8877
      8874      8875      8878      8875      8878      8879      8875      8878      8880
      8875      8878      8886      8876      8875      8877      8876      8875      8878
      8877      8875      8878      8878      8880      8881      8878      8886      8887
      8878      8886      8888      8878      8886      8889      8879      8878      8880
      8879      8878      8886      8880      8878      8886      8880      8881      8882
      8880      8881      8883      8881      8883      8884      8881      8883      8885
      8881      8883      8895      8882      8881      8883      8883      8895      8896
      8883      8895      8897      8883      8895      8898      8884      8883      8885
      8884      8883      8895      8885      8883      8895      8886      8889      8890
      8887      8886      8888      8887      8886      8889      8888      8886      8889
      8889      8890      8891      8889      8890      8892      8890      8892      8893
      8890      8892      8894      8890      8892      8942      8891      8890      8892
      8892      8942      8943      8892      8942      8944      8892      8942      8945
      8893      8892      8894      8893      8892      8942      8894      8892      8942
      8895      8898      8899      8895      8898      8900      8895      8898      8901
      8896      8895      8897      8896      8895      8898      8897      8895      8898
      8898      8901      8902      8898      8901      8903      8899      8898      8900
      8899      8898      8901      8900      8898      8901      8901      8903      8904
      8901      8903      8905      8902      8901      8903      8903      8905      8906
      8903      8905      8907      8903      8905      8908      8904      8903      8905
      8905      8908      8909      8905      8908      8910      8906      8905      8907
      8906      8905      8908      8907      8905      8908      8908      8910      8911
      8908      8910      8912      8909      8908      8910      8910      8912      8913
      8910      8912      8914      8910      8912      8915      8911      8910      8912
      8912      8915      8916      8912      8915      8917      8913      8912      8914
      8913      8912      8915      8914      8912      8915      8915      8917      8918
      8915      8917      8919      8916      8915      8917      8917      8919      8920
      8917      8919      8921      8917      8919      8922      8918      8917      8919
      8919      8922      8923      8919      8922      8924      8920      8919      8921
      8920      8919      8922      8921      8919      8922      8922      8924      8925
      8922      8924      8926      8923      8922      8924      8924      8926      8927
      8924      8926      8928      8924      8926      8929      8925      8924      8926
      8926      8929      8930      8926      8929      8931      8926      8929      8932
      8927      8926      8928      8927      8926      8929      8928      8926      8929
      8929      8932      8933      8929      8932      8934      8929      8932      8935
      8930      8929      8931      8930      8929      8932      8931      8929      8932
      8932      8935      8936      8932      8935      8937      8932      8935      8938
      8933      8932      8934      8933      8932      8935      8934      8932      8935
      8935      8938      8939      8935      8938      8940      8935      8938      8941
      8936      8935      8937      8936      8935      8938      8937      8935      8938
      8939      8938      8940      8939      8938      8941      8940      8938      8941
      8942      8945      8946      8942      8945      8947      8942      8945      8948
      8943      8942      8944      8943      8942      8945      8944      8942      8945
      8945      8948      8949      8945      8948      8950      8945      8948      8951
      8946      8945      8947      8946      8945      8948      8947      8945      8948
      8948      8951      8952      8948      8951      8953      8948      8951      8954
      8949      8948      8950      8949      8948      8951      8950      8948      8951
      8951      8954      8955      8951      8954      8956      8951      8954      8957
      8952      8951      8953      8952      8951      8954      8953      8951      8954
      8954      8957      8958      8954      8957      8959      8954      8957      8960
      8955      8954      8956      8955      8954      8957      8956      8954      8957
      8957      8960      8961      8957      8960      8962      8957      8960      8963
      8958      8957      8959      8958      8957      8960      8959      8957      8960
      8960      8963      8964      8960      8963      8965      8960      8963      8966
      8961      8960      8962      8961      8960      8963      8962      8960      8963
      8963      8966      8967      8963      8966      8968      8963      8966      8969
      8964      8963      8965      8964      8963      8966      8965      8963      8966
      8966      8969      8970      8966      8969      8971      8966      8969      8972
      8967      8966      8968      8967      8966      8969      8968      8966      8969
      8969      8972      8973      8969      8972      8974      8969      8972      8975
      8970      8969      8971      8970      8969      8972      8971      8969      8972
      8972      8975      8976      8972      8975      8977      8972      8975      8978
      8973      8972      8974      8973      8972      8975      8974      8972      8975
      8975      8978      8979      8975      8978      8980      8975      8978      8981
      8976      8975      8977      8976      8975      8978      8977      8975      8978
      8978      8981      8982      8978      8981      8983      8978      8981      8984
      8979      8978      8980      8979      8978      8981      8980      8978      8981
      8981      8984      8985      8981      8984      8986      8981      8984      8987
      8982      8981      8983      8982      8981      8984      8983      8981      8984
      8984      8987      8988      8984      8987      8989      8984      8987      8990
      8985      8984      8986      8985      8984      8987      8986      8984      8987
      8988      8987      8989      8988      8987      8990      8989      8987      8990
      8991      8992      8993      8991      8992      8994      8991      8992      8995
      8991      8996      8997      8991      8996      8998      8991      8996      8999
      8991      9000      9001      8991      9000      9002      8991      9000      9003
      8991      9004      9005      8991      9004      9006      8991      9004      9007
      8992      8991      8996      8992      8991      9000      8992      8991      9004
      8993      8992      8994      8993      8992      8995      8994      8992      8995
      8996      8991      9000      8996      8991      9004      8997      8996      8998
      8997      8996      8999      8998      8996      8999      9000      8991      9004
      9001      9000      9002      9001      9000      9003      9002      9000      9003
      9004      9007      9008      9004      9007      9009      9004      9007      9014
      9005      9004      9006      9005      9004      9007      9006      9004      9007
      9007      9014      9010      9008      9007      9009      9008      9007      9014
      9009      9007      9014      9010      9013      9015      9011      9010      9012
      9011      9010      9013      9011      9010      9014      9012      9010      9013
      9012      9010      9014      9013      9010      9014      9013      9015      9016
      9013      9015      9017      9013      9015      9020      9015      9020      9018
      9015      9020      9021      9015      9020      9022      9016      9015      9017
      9016      9015      9020      9017      9015      9020      9018      9020      9021
      9018      9020      9022      9018      9070      9071      9018      9070      9072
      9019      9018      9020      9019      9018      9070      9020      9018      9070
      9020      9022      9023      9020      9022      9024      9020      9022      9026
      9021      9020      9022      9022      9024      9025      9022      9026      9027
      9022      9026      9028      9023      9022      9024      9023      9022      9026
      9024      9022      9026      9026      9028      9029      9026      9028      9030
      9027      9026      9028      9028      9030      9031      9028      9030      9032
      9028      9030      9033      9029      9028      9030      9030      9033      9034
      9030      9033      9035      9030      9033      9036      9031      9030      9032
      9031      9030      9033      9032      9030      9033      9033      9036      9037
      9033      9036      9038      9033      9036      9039      9034      9033      9035
      9034      9033      9036      9035      9033      9036      9036      9039      9040
      9036      9039      9041      9036      9039      9042      9037      9036      9038
      9037      9036      9039      9038      9036      9039      9039      9042      9043
      9039      9042      9044      9039      9042      9045      9040      9039      9041
      9040      9039      9042      9041      9039      9042      9042      9045      9046
      9042      9045      9047      9042      9045      9048      9043      9042      9044
      9043      9042      9045      9044      9042      9045      9045      9048      9049
      9045      9048      9050      9045      9048      9051      9046      9045      9047
      9046      9045      9048      9047      9045      9048      9048      9051      9052
      9048      9051      9053      9048      9051      9054      9049      9048      9050
      9049      9048      9051      9050      9048      9051      9051      9054      9055
      9051      9054      9056      9051      9054      9057      9052      9051      9053
      9052      9051      9054      9053      9051      9054      9054      9057      9058
      9054      9057      9059      9054      9057      9060      9055      9054      9056
      9055      9054      9057      9056      9054      9057      9057      9060      9061
      9057      9060      9062      9057      9060      9063      9058      9057      9059
      9058      9057      9060      9059      9057      9060      9060      9063      9064
      9060      9063      9065      9060      9063      9066      9061      9060      9062
      9061      9060      9063      9062      9060      9063      9063      9066      9067
      9063      9066      9068      9063      9066      9069      9064      9063      9065
      9064      9063      9066      9065      9063      9066      9067      9066      9068
      9067      9066      9069      9068      9066      9069      9070      9072      9073
      9070      9072      9074      9070      9072      9075      9071      9070      9072
      9072      9075      9076      9072      9075      9077      9072      9075      9078
      9073      9072      9074      9073      9072      9075      9074      9072      9075
      9075      9078      9079      9075      9078      9080      9075      9078      9081
      9076      9075      9077      9076      9075      9078      9077      9075      9078
      9078      9081      9082      9078      9081      9083      9078      9081      9084
      9079      9078      9080      9079      9078      9081      9080      9078      9081
      9081      9084      9085      9081      9084      9086      9081      9084      9087
      9082      9081      9083      9082      9081      9084      9083      9081      9084
      9084      9087      9088      9084      9087      9089      9084      9087      9090
      9085      9084      9086      9085      9084      9087      9086      9084      9087
      9087      9090      9091      9087      9090      9092      9087      9090      9093
      9088      9087      9089      9088      9087      9090      9089      9087      9090
      9090      9093      9094      9090      9093      9095      9091      9090      9092
      9091      9090      9093      9092      9090      9093      9093      9095      9096
      9093      9095      9097      9094      9093      9095      9095      9097      9098
      9095      9097      9099      9095      9097      9100      9096      9095      9097
      9097      9100      9101      9097      9100      9102      9097      9100      9103
      9098      9097      9099      9098      9097      9100      9099      9097      9100
      9100      9103      9104      9100      9103      9105      9100      9103      9106
      9101      9100      9102      9101      9100      9103      9102      9100      9103
      9103      9106      9107      9103      9106      9108      9103      9106      9109
      9104      9103      9105      9104      9103      9106      9105      9103      9106
      9106      9109      9110      9106      9109      9111      9106      9109      9112
      9107      9106      9108      9107      9106      9109      9108      9106      9109
      9109      9112      9113      9109      9112      9114      9109      9112      9115
      9110      9109      9111      9110      9109      9112      9111      9109      9112
      9112      9115      9116      9112      9115      9117      9112      9115      9118
      9113      9112      9114      9113      9112      9115      9114      9112      9115
      9115      9118      9119      9115      9118      9120      9115      9118      9121
      9116      9115      9117      9116      9115      9118      9117      9115      9118
      9119      9118      9120      9119      9118      9121      9120      9118      9121
      9122      9124      9125      9122      9126      9127      9122      9126      9128
      9122      9126      9129      9122      9168      9165      9122      9168      9169
      9122      9168      9170      9123      9122      9124      9123      9122      9126
      9123      9122      9168      9124      9122      9126      9124      9122      9168
      9126      9122      9168      9126      9129      9130      9126      9129      9160
      9127      9126      9128      9127      9126      9129      9128      9126      9129
      9129      9130      9131      9129      9130      9132      9129      9160      9158
      9129      9160      9161      9129      9160      9165      9130      9129      9160
      9130      9132      9133      9130      9132      9134      9130      9132      9135
      9131      9130      9132      9132      9135      9136      9132      9135      9137
      9132      9135      9158      9133      9132      9134      9133      9132      9135
      9134      9132      9135      9135      9137      9138      9135      9137      9139
      9135      9137      9147      9135      9158      9155      9135      9158      9159
      9135      9158      9160      9136      9135      9137      9136      9135      9158
      9137      9135      9158      9137      9139      9140      9137      9139      9141
      9137      9139      9142      9137      9147      9145      9137      9147      9148
      9137      9147      9152      9138      9137      9139      9138      9137      9147
      9139      9137      9147      9139      9142      9143      9139      9142      9144
      9139      9142      9145      9140      9139      9141      9140      9139      9142
      9141      9139      9142      9142      9145      9146      9142      9145      9147
      9142      9145      9171      9143      9142      9144      9143      9142      9145
      9144      9142      9145      9145      9147      9148      9145      9147      9152
      9145      9171      9172      9145      9171      9173      9145      9171      9177
      9146      9145      9147      9146      9145      9171      9147      9145      9171
      9147      9148      9149      9147      9148      9150      9147      9148      9151
      9147      9152      9153      9147      9152      9154      9147      9152      9155
      9148      9147      9152      9149      9148      9150      9149      9148      9151
      9150      9148      9151      9152      9155      9156      9152      9155      9157
      9152      9155      9158      9153      9152      9154      9153      9152      9155
      9154      9152      9155      9155      9158      9159      9155      9158      9160
      9156      9155      9157      9156      9155      9158      9157      9155      9158
      9158      9160      9161      9158      9160      9165      9159      9158      9160
      9160      9161      9162      9160      9161      9163      9160      9161      9164
      9160      9165      9166      9160      9165      9167      9160      9165      9168
      9161      9160      9165      9162      9161      9163      9162      9161      9164
      9163      9161      9164      9165      9168      9169      9165      9168      9170
      9166      9165      9167      9166      9165      9168      9167      9165      9168
      9169      9168      9170      9171      9173      9174      9171      9173      9175
      9171      9173      9176      9171      9177      9178      9171      9177      9179
      9171      9177      9180      9172      9171      9173      9172      9171      9177
      9173      9171      9177      9174      9173      9175      9174      9173      9176
      9175      9173      9176      9177      9180      9181      9177      9180      9182
      9177      9180      9183      9178      9177      9179      9178      9177      9180
      9179      9177      9180      9180      9183      9184      9180      9183      9185
      9180      9183      9186      9181      9180      9182      9181      9180      9183
      9182      9180      9183      9183      9186      9187      9183      9186      9188
      9183      9186      9192      9184      9183      9185      9184      9183      9186
      9185      9183      9186      9186      9188      9189      9186      9188      9190
      9186      9188      9191      9186      9192      9193      9186      9192      9194
      9186      9192      9195      9187      9186      9188      9187      9186      9192
      9188      9186      9192      9189      9188      9190      9189      9188      9191
      9190      9188      9191      9193      9192      9194      9193      9192      9195
      9194      9192      9195      9196      9200      9201      9196      9200      9202
      9196      9200      9203      9197      9196      9198      9197      9196      9199
      9197      9196      9200      9198      9196      9199      9198      9196      9200
      9199      9196      9200      9200      9203      9204      9200      9203      9205
      9200      9203      9209      9201      9200      9202      9201      9200      9203
      9202      9200      9203      9203      9209      9206      9204      9203      9205
      9204      9203      9209      9205      9203      9209      9206      9210      9211
      9207      9206      9208      9207      9206      9209      9207      9206      9210
      9208      9206      9209      9208      9206      9210      9209      9206      9210
      9210      9211      9212      9210      9211      9213      9210      9211      9214
      9211      9214      9215      9211      9214      9216      9211      9214      9222
      9212      9211      9213      9212      9211      9214      9213      9211      9214
      9214      9216      9217      9214      9222      9223      9214      9222      9224
      9214      9222      9225      9215      9214      9216      9215      9214      9222
      9216      9214      9222      9216      9217      9218      9216      9217      9219
      9217      9219      9220      9217      9219      9221      9217      9219      9231
      9218      9217      9219      9219      9231      9232      9219      9231      9233
      9219      9231      9234      9220      9219      9221      9220      9219      9231
      9221      9219      9231      9222      9225      9226      9223      9222      9224
      9223      9222      9225      9224      9222      9225      9225      9226      9227
      9225      9226      9228      9226      9228      9229      9226      9228      9230
      9226      9228      9278      9227      9226      9228      9228      9278      9279
      9228      9278      9280      9228      9278      9281      9229      9228      9230
      9229      9228      9278      9230      9228      9278      9231      9234      9235
      9231      9234      9236      9231      9234      9237      9232      9231      9233
      9232      9231      9234      9233      9231      9234      9234      9237      9238
      9234      9237      9239      9235      9234      9236      9235      9234      9237
      9236      9234      9237      9237      9239      9240      9237      9239      9241
      9238      9237      9239      9239      9241      9242      9239      9241      9243
      9239      9241      9244      9240      9239      9241      9241      9244      9245
      9241      9244      9246      9242      9241      9243      9242      9241      9244
      9243      9241      9244      9244      9246      9247      9244      9246      9248
      9245      9244      9246      9246      9248      9249      9246      9248      9250
      9246      9248      9251      9247      9246      9248      9248      9251      9252
      9248      9251      9253      9249      9248      9250      9249      9248      9251
      9250      9248      9251      9251      9253      9254      9251      9253      9255
      9252      9251      9253      9253      9255      9256      9253      9255      9257
      9253      9255      9258      9254      9253      9255      9255      9258      9259
      9255      9258      9260      9256      9255      9257      9256      9255      9258
      9257      9255      9258      9258      9260      9261      9258      9260      9262
      9259      9258      9260      9260      9262      9263      9260      9262      9264
      9260      9262      9265      9261      9260      9262      9262      9265      9266
      9262      9265      9267      9262      9265      9268      9263      9262      9264
      9263      9262      9265      9264      9262      9265      9265      9268      9269
      9265      9268      9270      9265      9268      9271      9266      9265      9267
      9266      9265      9268      9267      9265      9268      9268      9271      9272
      9268      9271      9273      9268      9271      9274      9269      9268      9270
      9269      9268      9271      9270      9268      9271      9271      9274      9275
      9271      9274      9276      9271      9274      9277      9272      9271      9273
      9272      9271      9274      9273      9271      9274      9275      9274      9276
      9275      9274      9277      9276      9274      9277      9278      9281      9282
      9278      9281      9283      9278      9281      9284      9279      9278      9280
      9279      9278      9281      9280      9278      9281      9281      9284      9285
      9281      9284      9286      9281      9284      9287      9282      9281      9283
      9282      9281      9284      9283      9281      9284      9284      9287      9288
      9284      9287      9289      9284      9287      9290      9285      9284      9286
      9285      9284      9287      9286      9284      9287      9287      9290      9291
      9287      9290      9292      9287      9290      9293      9288      9287      9289
      9288      9287      9290      9289      9287      9290      9290      9293      9294
      9290      9293      9295      9290      9293      9296      9291      9290      9292
      9291      9290      9293      9292      9290      9293      9293      9296      9297
      9293      9296      9298      9293      9296      9299      9294      9293      9295
      9294      9293      9296      9295      9293      9296      9296      9299      9300
      9296      9299      9301      9296      9299      9302      9297      9296      9298
      9297      9296      9299      9298      9296      9299      9299      9302      9303
      9299      9302      9304      9299      9302      9305      9300      9299      9301
      9300      9299      9302      9301      9299      9302      9302      9305      9306
      9302      9305      9307      9302      9305      9308      9303      9302      9304
      9303      9302      9305      9304      9302      9305      9305      9308      9309
      9305      9308      9310      9305      9308      9311      9306      9305      9307
      9306      9305      9308      9307      9305      9308      9308      9311      9312
      9308      9311      9313      9308      9311      9314      9309      9308      9310
      9309      9308      9311      9310      9308      9311      9311      9314      9315
      9311      9314      9316      9311      9314      9317      9312      9311      9313
      9312      9311      9314      9313      9311      9314      9314      9317      9318
      9314      9317      9319      9314      9317      9320      9315      9314      9316
      9315      9314      9317      9316      9314      9317      9317      9320      9321
      9317      9320      9322      9317      9320      9323      9318      9317      9319
      9318      9317      9320      9319      9317      9320      9320      9323      9324
      9320      9323      9325      9320      9323      9326      9321      9320      9322
      9321      9320      9323      9322      9320      9323      9324      9323      9325
      9324      9323      9326      9325      9323      9326      9327      9331      9332
      9327      9331      9333      9327      9331      9334      9328      9327      9329
      9328      9327      9330      9328      9327      9331      9329      9327      9330
      9329      9327      9331      9330      9327      9331      9331      9334      9335
      9331      9334      9336      9331      9334      9340      9332      9331      9333
      9332      9331      9334      9333      9331      9334      9334      9340      9337
      9335      9334      9336      9335      9334      9340      9336      9334      9340
      9337      9341      9342      9338      9337      9339      9338      9337      9340
      9338      9337      9341      9339      9337      9340      9339      9337      9341
      9340      9337      9341      9341      9342      9343      9341      9342      9344
      9341      9342      9345      9342      9345      9346      9342      9345      9347
      9342      9345      9353      9343      9342      9344      9343      9342      9345
      9344      9342      9345      9345      9347      9348      9345      9353      9354
      9345      9353      9355      9345      9353      9356      9346      9345      9347
      9346      9345      9353      9347      9345      9353      9347      9348      9349
      9347      9348      9350      9348      9350      9351      9348      9350      9352
      9348      9350      9362      9349      9348      9350      9350      9362      9363
      9350      9362      9364      9350      9362      9365      9351      9350      9352
      9351      9350      9362      9352      9350      9362      9353      9356      9357
      9354      9353      9355      9354      9353      9356      9355      9353      9356
      9356      9357      9358      9356      9357      9359      9357      9359      9360
      9357      9359      9361      9357      9359      9409      9358      9357      9359
      9359      9409      9410      9359      9409      9411      9359      9409      9412
      9360      9359      9361      9360      9359      9409      9361      9359      9409
      9362      9365      9366      9362      9365      9367      9362      9365      9368
      9363      9362      9364      9363      9362      9365      9364      9362      9365
      9365      9368      9369      9365      9368      9370      9365      9368      9371
      9366      9365      9367      9366      9365      9368      9367      9365      9368
      9368      9371      9372      9368      9371      9373      9368      9371      9374
      9369      9368      9370      9369      9368      9371      9370      9368      9371
      9371      9374      9375      9371      9374      9376      9371      9374      9377
      9372      9371      9373      9372      9371      9374      9373      9371      9374
      9374      9377      9378      9374      9377      9379      9374      9377      9380
      9375      9374      9376      9375      9374      9377      9376      9374      9377
      9377      9380      9381      9377      9380      9382      9378      9377      9379
      9378      9377      9380      9379      9377      9380      9380      9382      9383
      9380      9382      9384      9381      9380      9382      9382      9384      9385
      9382      9384      9386      9382      9384      9387      9383      9382      9384
      9384      9387      9388      9384      9387      9389      9384      9387      9390
      9385      9384      9386      9385      9384      9387      9386      9384      9387
      9387      9390      9391      9387      9390      9392      9387      9390      9393
      9388      9387      9389      9388      9387      9390      9389      9387      9390
      9390      9393      9394      9390      9393      9395      9390      9393      9396
      9391      9390      9392      9391      9390      9393      9392      9390      9393
      9393      9396      9397      9393      9396      9398      9393      9396      9399
      9394      9393      9395      9394      9393      9396      9395      9393      9396
      9396      9399      9400      9396      9399      9401      9396      9399      9402
      9397      9396      9398      9397      9396      9399      9398      9396      9399
      9399      9402      9403      9399      9402      9404      9399      9402      9405
      9400      9399      9401      9400      9399      9402      9401      9399      9402
      9402      9405      9406      9402      9405      9407      9402      9405      9408
      9403      9402      9404      9403      9402      9405      9404      9402      9405
      9406      9405      9407      9406      9405      9408      9407      9405      9408
      9409      9412      9413      9409      9412      9414      9409      9412      9415
      9410      9409      9411      9410      9409      9412      9411      9409      9412
      9412      9415      9416      9412      9415      9417      9412      9415      9418
      9413      9412      9414      9413      9412      9415      9414      9412      9415
      9415      9418      9419      9415      9418      9420      9415      9418      9421
      9416      9415      9417      9416      9415      9418      9417      9415      9418
      9418      9421      9422      9418      9421      9423      9418      9421      9424
      9419      9418      9420      9419      9418      9421      9420      9418      9421
      9421      9424      9425      9421      9424      9426      9421      9424      9427
      9422      9421      9423      9422      9421      9424      9423      9421      9424
      9424      9427      9428      9424      9427      9429      9424      9427      9430
      9425      9424      9426      9425      9424      9427      9426      9424      9427
      9427      9430      9431      9427      9430      9432      9427      9430      9433
      9428      9427      9429      9428      9427      9430      9429      9427      9430
      9430      9433      9434      9430      9433      9435      9430      9433      9436
      9431      9430      9432      9431      9430      9433      9432      9430      9433
      9433      9436      9437      9433      9436      9438      9433      9436      9439
      9434      9433      9435      9434      9433      9436      9435      9433      9436
      9436      9439      9440      9436      9439      9441      9436      9439      9442
      9437      9436      9438      9437      9436      9439      9438      9436      9439
      9439      9442      9443      9439      9442      9444      9439      9442      9445
      9440      9439      9441      9440      9439      9442      9441      9439      9442
      9442      9445      9446      9442      9445      9447      9442      9445      9448
      9443      9442      9444      9443      9442      9445      9444      9442      9445
      9445      9448      9449      9445      9448      9450      9445      9448      9451
      9446      9445      9447      9446      9445      9448      9447      9445      9448
      9448      9451      9452      9448      9451      9453      9448      9451      9454
      9449      9448      9450      9449      9448      9451      9450      9448      9451
      9451      9454      9455      9451      9454      9456      9451      9454      9457
      9452      9451      9453      9452      9451      9454      9453      9451      9454
      9455      9454      9456      9455      9454      9457      9456      9454      9457
      9458      9459      9460      9458      9459      9461      9458      9459      9474
      9458      9462      9463      9458      9462      9464      9458      9462      9465
      9458      9466      9467      9458      9466      9468      9458      9466      9469
      9458      9470      9471      9458      9470      9472      9458      9470      9473
      9459      9458      9462      9459      9458      9466      9459      9458      9470
      9459      9474      9475      9459      9474      9476      9459      9474      9480
      9460      9459      9461      9460      9459      9474      9461      9459      9474
      9462      9458      9466      9462      9458      9470      9463      9462      9464
      9463      9462      9465      9464      9462      9465      9466      9458      9470
      9467      9466      9468      9467      9466      9469      9468      9466      9469
      9471      9470      9472      9471      9470      9473      9472      9470      9473
      9474      9480      9477      9475      9474      9476      9475      9474      9480
      9476      9474      9480      9477      9481      9482      9478      9477      9479
      9478      9477      9480      9478      9477      9481      9479      9477      9480
      9479      9477      9481      9480      9477      9481      9481      9482      9483
      9481      9482      9484      9481      9482      9485      9482      9485      9486
      9482      9485      9487      9482      9485      9493      9483      9482      9484
      9483      9482      9485      9484      9482      9485      9485      9487      9488
      9485      9493      9494      9485      9493      9495      9485      9493      9496
      9486      9485      9487      9486      9485      9493      9487      9485      9493
      9487      9488      9489      9487      9488      9490      9488      9490      9491
      9488      9490      9492      9488      9490      9502      9489      9488      9490
      9490      9502      9503      9490      9502      9504      9490      9502      9505
      9491      9490      9492      9491      9490      9502      9492      9490      9502
      9493      9496      9497      9494      9493      9495      9494      9493      9496
      9495      9493      9496      9496      9497      9498      9496      9497      9499
      9497      9499      9500      9497      9499      9501      9497      9499      9549
      9498      9497      9499      9499      9549      9550      9499      9549      9551
      9499      9549      9552      9500      9499      9501      9500      9499      9549
      9501      9499      9549      9502      9505      9506      9502      9505      9507
      9502      9505      9508      9503      9502      9504      9503      9502      9505
      9504      9502      9505      9505      9508      9509      9505      9508      9510
      9505      9508      9511      9506      9505      9507      9506      9505      9508
      9507      9505      9508      9508      9511      9512      9508      9511      9513
      9508      9511      9514      9509      9508      9510      9509      9508      9511
      9510      9508      9511      9511      9514      9515      9511      9514      9516
      9511      9514      9517      9512      9511      9513      9512      9511      9514
      9513      9511      9514      9514      9517      9518      9514      9517      9519
      9514      9517      9520      9515      9514      9516      9515      9514      9517
      9516      9514      9517      9517      9520      9521      9517      9520      9522
      9518      9517      9519      9518      9517      9520      9519      9517      9520
      9520      9522      9523      9520      9522      9524      9521      9520      9522
      9522      9524      9525      9522      9524      9526      9522      9524      9527
      9523      9522      9524      9524      9527      9528      9524      9527      9529
      9524      9527      9530      9525      9524      9526      9525      9524      9527
      9526      9524      9527      9527      9530      9531      9527      9530      9532
      9527      9530      9533      9528      9527      9529      9528      9527      9530
      9529      9527      9530      9530      9533      9534      9530      9533      9535
      9530      9533      9536      9531      9530      9532      9531      9530      9533
      9532      9530      9533      9533      9536      9537      9533      9536      9538
      9533      9536      9539      9534      9533      9535      9534      9533      9536
      9535      9533      9536      9536      9539      9540      9536      9539      9541
      9536      9539      9542      9537      9536      9538      9537      9536      9539
      9538      9536      9539      9539      9542      9543      9539      9542      9544
      9539      9542      9545      9540      9539      9541      9540      9539      9542
      9541      9539      9542      9542      9545      9546      9542      9545      9547
      9542      9545      9548      9543      9542      9544      9543      9542      9545
      9544      9542      9545      9546      9545      9547      9546      9545      9548
      9547      9545      9548      9549      9552      9553      9549      9552      9554
      9549      9552      9555      9550      9549      9551      9550      9549      9552
      9551      9549      9552      9552      9555      9556      9552      9555      9557
      9552      9555      9558      9553      9552      9554      9553      9552      9555
      9554      9552      9555      9555      9558      9559      9555      9558      9560
      9555      9558      9561      9556      9555      9557      9556      9555      9558
      9557      9555      9558      9558      9561      9562      9558      9561      9563
      9558      9561      9564      9559      9558      9560      9559      9558      9561
      9560      9558      9561      9561      9564      9565      9561      9564      9566
      9561      9564      9567      9562      9561      9563      9562      9561      9564
      9563      9561      9564      9564      9567      9568      9564      9567      9569
      9564      9567      9570      9565      9564      9566      9565      9564      9567
      9566      9564      9567      9567      9570      9571      9567      9570      9572
      9567      9570      9573      9568      9567      9569      9568      9567      9570
      9569      9567      9570      9570      9573      9574      9570      9573      9575
      9570      9573      9576      9571      9570      9572      9571      9570      9573
      9572      9570      9573      9573      9576      9577      9573      9576      9578
      9573      9576      9579      9574      9573      9575      9574      9573      9576
      9575      9573      9576      9576      9579      9580      9576      9579      9581
      9576      9579      9582      9577      9576      9578      9577      9576      9579
      9578      9576      9579      9579      9582      9583      9579      9582      9584
      9579      9582      9585      9580      9579      9581      9580      9579      9582
      9581      9579      9582      9582      9585      9586      9582      9585      9587
      9582      9585      9588      9583      9582      9584      9583      9582      9585
      9584      9582      9585      9585      9588      9589      9585      9588      9590
      9585      9588      9591      9586      9585      9587      9586      9585      9588
      9587      9585      9588      9589      9588      9590      9589      9588      9591
      9590      9588      9591      9592      9596      9597      9592      9596      9598
      9592      9596      9599      9593      9592      9594      9593      9592      9595
      9593      9592      9596      9594      9592      9595      9594      9592      9596
      9595      9592      9596      9596      9599      9600      9596      9599      9601
      9596      9599      9605      9597      9596      9598      9597      9596      9599
      9598      9596      9599      9599      9605      9602      9600      9599      9601
      9600      9599      9605      9601      9599      9605      9602      9606      9607
      9603      9602      9604      9603      9602      9605      9603      9602      9606
      9604      9602      9605      9604      9602      9606      9605      9602      9606
      9606      9607      9608      9606      9607      9609      9606      9607      9610
      9607      9610      9611      9607      9610      9612      9607      9610      9618
      9608      9607      9609      9608      9607      9610      9609      9607      9610
      9610      9612      9613      9610      9618      9619      9610      9618      9620
      9610      9618      9621      9611      9610      9612      9611      9610      9618
      9612      9610      9618      9612      9613      9614      9612      9613      9615
      9613      9615      9616      9613      9615      9617      9613      9615      9627
      9614      9613      9615      9615      9627      9628      9615      9627      9629
      9615      9627      9630      9616      9615      9617      9616      9615      9627
      9617      9615      9627      9618      9621      9622      9619      9618      9620
      9619      9618      9621      9620      9618      9621      9621      9622      9623
      9621      9622      9624      9622      9624      9625      9622      9624      9626
      9622      9624      9674      9623      9622      9624      9624      9674      9675
      9624      9674      9676      9624      9674      9677      9625      9624      9626
      9625      9624      9674      9626      9624      9674      9627      9630      9631
      9627      9630      9632      9627      9630      9633      9628      9627      9629
      9628      9627      9630      9629      9627      9630      9630      9633      9634
      9630      9633      9635      9630      9633      9636      9631      9630      9632
      9631      9630      9633      9632      9630      9633      9633      9636      9637
      9633      9636      9638      9633      9636      9639      9634      9633      9635
      9634      9633      9636      9635      9633      9636      9636      9639      9640
      9636      9639      9641      9636      9639      9642      9637      9636      9638
      9637      9636      9639      9638      9636      9639      9639      9642      9643
      9639      9642      9644      9639      9642      9645      9640      9639      9641
      9640      9639      9642      9641      9639      9642      9642      9645      9646
      9642      9645      9647      9643      9642      9644      9643      9642      9645
      9644      9642      9645      9645      9647      9648      9645      9647      9649
      9646      9645      9647      9647      9649      9650      9647      9649      9651
      9647      9649      9652      9648      9647      9649      9649      9652      9653
      9649      9652      9654      9649      9652      9655      9650      9649      9651
      9650      9649      9652      9651      9649      9652      9652      9655      9656
      9652      9655      9657      9652      9655      9658      9653      9652      9654
      9653      9652      9655      9654      9652      9655      9655      9658      9659
      9655      9658      9660      9655      9658      9661      9656      9655      9657
      9656      9655      9658      9657      9655      9658      9658      9661      9662
      9658      9661      9663      9658      9661      9664      9659      9658      9660
      9659      9658      9661      9660      9658      9661      9661      9664      9665
      9661      9664      9666      9661      9664      9667      9662      9661      9663
      9662      9661      9664      9663      9661      9664      9664      9667      9668
      9664      9667      9669      9664      9667      9670      9665      9664      9666
      9665      9664      9667      9666      9664      9667      9667      9670      9671
      9667      9670      9672      9667      9670      9673      9668      9667      9669
      9668      9667      9670      9669      9667      9670      9671      9670      9672
      9671      9670      9673      9672      9670      9673      9674      9677      9678
      9674      9677      9679      9674      9677      9680      9675      9674      9676
      9675      9674      9677      9676      9674      9677      9677      9680      9681
      9677      9680      9682      9677      9680      9683      9678      9677      9679
      9678      9677      9680      9679      9677      9680      9680      9683      9684
      9680      9683      9685      9680      9683      9686      9681      9680      9682
      9681      9680      9683      9682      9680      9683      9683      9686      9687
      9683      9686      9688      9683      9686      9689      9684      9683      9685
      9684      9683      9686      9685      9683      9686      9686      9689      9690
      9686      9689      9691      9686      9689      9692      9687      9686      9688
      9687      9686      9689      9688      9686      9689      9689      9692      9693
      9689      9692      9694      9689      9692      9695      9690      9689      9691
      9690      9689      9692      9691      9689      9692      9692      9695      9696
      9692      9695      9697      9692      9695      9698      9693      9692      9694
      9693      9692      9695      9694      9692      9695      9695      9698      9699
      9695      9698      9700      9695      9698      9701      9696      9695      9697
      9696      9695      9698      9697      9695      9698      9698      9701      9702
      9698      9701      9703      9698      9701      9704      9699      9698      9700
      9699      9698      9701      9700      9698      9701      9701      9704      9705
      9701      9704      9706      9701      9704      9707      9702      9701      9703
      9702      9701      9704      9703      9701      9704      9704      9707      9708
      9704      9707      9709      9704      9707      9710      9705      9704      9706
      9705      9704      9707      9706      9704      9707      9707      9710      9711
      9707      9710      9712      9707      9710      9713      9708      9707      9709
      9708      9707      9710      9709      9707      9710      9710      9713      9714
      9710      9713      9715      9710      9713      9716      9711      9710      9712
      9711      9710      9713      9712      9710      9713      9713      9716      9717
      9713      9716      9718      9713      9716      9719      9714      9713      9715
      9714      9713      9716      9715      9713      9716      9716      9719      9720
      9716      9719      9721      9716      9719      9722      9717      9716      9718
      9717      9716      9719      9718      9716      9719      9720      9719      9721
      9720      9719      9722      9721      9719      9722      9723      9724      9725
      9723      9724      9726      9723      9724      9739      9723      9727      9728
      9723      9727      9729      9723      9727      9730      9723      9731      9732
      9723      9731      9733      9723      9731      9734      9723      9735      9736
      9723      9735      9737      9723      9735      9738      9724      9723      9727
      9724      9723      9731      9724      9723      9735      9724      9739      9740
      9724      9739      9741      9724      9739      9745      9725      9724      9726
      9725      9724      9739      9726      9724      9739      9727      9723      9731
      9727      9723      9735      9728      9727      9729      9728      9727      9730
      9729      9727      9730      9731      9723      9735      9732      9731      9733
      9732      9731      9734      9733      9731      9734      9736      9735      9737
      9736      9735      9738      9737      9735      9738      9739      9745      9742
      9740      9739      9741      9740      9739      9745      9741      9739      9745
      9742      9746      9747      9743      9742      9744      9743      9742      9745
      9743      9742      9746      9744      9742      9745      9744      9742      9746
      9745      9742      9746      9746      9747      9748      9746      9747      9749
      9746      9747      9750      9747      9750      9751      9747      9750      9752
      9747      9750      9758      9748      9747      9749      9748      9747      9750
      9749      9747      9750      9750      9752      9753      9750      9758      9759
      9750      9758      9760      9750      9758      9761      9751      9750      9752
      9751      9750      9758      9752      9750      9758      9752      9753      9754
      9752      9753      9755      9753      9755      9756      9753      9755      9757
      9753      9755      9767      9754      9753      9755      9755      9767      9768
      9755      9767      9769      9755      9767      9770      9756      9755      9757
      9756      9755      9767      9757      9755      9767      9758      9761      9762
      9759      9758      9760      9759      9758      9761      9760      9758      9761
      9761      9762      9763      9761      9762      9764      9762      9764      9765
      9762      9764      9766      9762      9764      9814      9763      9762      9764
      9764      9814      9815      9764      9814      9816      9764      9814      9817
      9765      9764      9766      9765      9764      9814      9766      9764      9814
      9767      9770      9771      9767      9770      9772      9767      9770      9773
      9768      9767      9769      9768      9767      9770      9769      9767      9770
      9770      9773      9774      9770      9773      9775      9771      9770      9772
      9771      9770      9773      9772      9770      9773      9773      9775      9776
      9773      9775      9777      9774      9773      9775      9775      9777      9778
      9775      9777      9779      9775      9777      9780      9776      9775      9777
      9777      9780      9781      9777      9780      9782      9778      9777      9779
      9778      9777      9780      9779      9777      9780      9780      9782      9783
      9780      9782      9784      9781      9780      9782      9782      9784      9785
      9782      9784      9786      9782      9784      9787      9783      9782      9784
      9784      9787      9788      9784      9787      9789      9785      9784      9786
      9785      9784      9787      9786      9784      9787      9787      9789      9790
      9787      9789      9791      9788      9787      9789      9789      9791      9792
      9789      9791      9793      9789      9791      9794      9790      9789      9791
      9791      9794      9795      9791      9794      9796      9792      9791      9793
      9792      9791      9794      9793      9791      9794      9794      9796      9797
      9794      9796      9798      9795      9794      9796      9796      9798      9799
      9796      9798      9800      9796      9798      9801      9797      9796      9798
      9798      9801      9802      9798      9801      9803      9798      9801      9804
      9799      9798      9800      9799      9798      9801      9800      9798      9801
      9801      9804      9805      9801      9804      9806      9801      9804      9807
      9802      9801      9803      9802      9801      9804      9803      9801      9804
      9804      9807      9808      9804      9807      9809      9804      9807      9810
      9805      9804      9806      9805      9804      9807      9806      9804      9807
      9807      9810      9811      9807      9810      9812      9807      9810      9813
      9808      9807      9809      9808      9807      9810      9809      9807      9810
      9811      9810      9812      9811      9810      9813      9812      9810      9813
      9814      9817      9818      9814      9817      9819      9814      9817      9820
      9815      9814      9816      9815      9814      9817      9816      9814      9817
      9817      9820      9821      9817      9820      9822      9817      9820      9823
      9818      9817      9819      9818      9817      9820      9819      9817      9820
      9820      9823      9824      9820      9823      9825      9820      9823      9826
      9821      9820      9822      9821      9820      9823      9822      9820      9823
      9823      9826      9827      9823      9826      9828      9823      9826      9829
      9824      9823      9825      9824      9823      9826      9825      9823      9826
      9826      9829      9830      9826      9829      9831      9826      9829      9832
      9827      9826      9828      9827      9826      9829      9828      9826      9829
      9829      9832      9833      9829      9832      9834      9829      9832      9835
      9830      9829      9831      9830      9829      9832      9831      9829      9832
      9832      9835      9836      9832      9835      9837      9832      9835      9838
      9833      9832      9834      9833      9832      9835      9834      9832      9835
      9835      9838      9839      9835      9838      9840      9835      9838      9841
      9836      9835      9837      9836      9835      9838      9837      9835      9838
      9838      9841      9842      9838      9841      9843      9838      9841      9844
      9839      9838      9840      9839      9838      9841      9840      9838      9841
      9841      9844      9845      9841      9844      9846      9841      9844      9847
      9842      9841      9843      9842      9841      9844      9843      9841      9844
      9844      9847      9848      9844      9847      9849      9844      9847      9850
      9845      9844      9846      9845      9844      9847      9846      9844      9847
      9847      9850      9851      9847      9850      9852      9847      9850      9853
      9848      9847      9849      9848      9847      9850      9849      9847      9850
      9850      9853      9854      9850      9853      9855      9850      9853      9856
      9851      9850      9852      9851      9850      9853      9852      9850      9853
      9853      9856      9857      9853      9856      9858      9853      9856      9859
      9854      9853      9855      9854      9853      9856      9855      9853      9856
      9856      9859      9860      9856      9859      9861      9856      9859      9862
      9857      9856      9858      9857      9856      9859      9858      9856      9859
      9860      9859      9861      9860      9859      9862      9861      9859      9862
      9863      9865      9866      9863      9867      9868      9863      9867      9869
      9863      9867      9870      9863      9909      9906      9863      9909      9910
      9863      9909      9911      9864      9863      9865      9864      9863      9867
      9864      9863      9909      9865      9863      9867      9865      9863      9909
      9867      9863      9909      9867      9870      9871      9867      9870      9901
      9868      9867      9869      9868      9867      9870      9869      9867      9870
      9870      9871      9872      9870      9871      9873      9870      9901      9899
      9870      9901      9902      9870      9901      9906      9871      9870      9901
      9871      9873      9874      9871      9873      9875      9871      9873      9876
      9872      9871      9873      9873      9876      9877      9873      9876      9878
      9873      9876      9899      9874      9873      9875      9874      9873      9876
      9875      9873      9876      9876      9878      9879      9876      9878      9880
      9876      9878      9888      9876      9899      9896      9876      9899      9900
      9876      9899      9901      9877      9876      9878      9877      9876      9899
      9878      9876      9899      9878      9880      9881      9878      9880      9882
      9878      9880      9883      9878      9888      9886      9878      9888      9889
      9878      9888      9893      9879      9878      9880      9879      9878      9888
      9880      9878      9888      9880      9883      9884      9880      9883      9885
      9880      9883      9886      9881      9880      9882      9881      9880      9883
      9882      9880      9883      9883      9886      9887      9883      9886      9888
      9883      9886      9912      9884      9883      9885      9884      9883      9886
      9885      9883      9886      9886      9888      9889      9886      9888      9893
      9886      9912      9913      9886      9912      9914      9886      9912      9918
      9887      9886      9888      9887      9886      9912      9888      9886      9912
      9888      9889      9890      9888      9889      9891      9888      9889      9892
      9888      9893      9894      9888      9893      9895      9888      9893      9896
      9889      9888      9893      9890      9889      9891      9890      9889      9892
      9891      9889      9892      9893      9896      9897      9893      9896      9898
      9893      9896      9899      9894      9893      9895      9894      9893      9896
      9895      9893      9896      9896      9899      9900      9896      9899      9901
      9897      9896      9898      9897      9896      9899      9898      9896      9899
      9899      9901      9902      9899      9901      9906      9900      9899      9901
      9901      9902      9903      9901      9902      9904      9901      9902      9905
      9901      9906      9907      9901      9906      9908      9901      9906      9909
      9902      9901      9906      9903      9902      9904      9903      9902      9905
      9904      9902      9905      9906      9909      9910      9906      9909      9911
      9907      9906      9908      9907      9906      9909      9908      9906      9909
      9910      9909      9911      9912      9914      9915      9912      9914      9916
      9912      9914      9917      9912      9918      9919      9912      9918      9920
      9912      9918      9921      9913      9912      9914      9913      9912      9918
      9914      9912      9918      9915      9914      9916      9915      9914      9917
      9916      9914      9917      9918      9921      9922      9918      9921      9923
      9918      9921      9924      9919      9918      9920      9919      9918      9921
      9920      9918      9921      9921      9924      9925      9921      9924      9926
      9921      9924      9927      9922      9921      9923      9922      9921      9924
      9923      9921      9924      9924      9927      9928      9924      9927      9929
      9924      9927      9933      9925      9924      9926      9925      9924      9927
      9926      9924      9927      9927      9929      9930      9927      9929      9931
      9927      9929      9932      9927      9933      9934      9927      9933      9935
      9927      9933      9936      9928      9927      9929      9928      9927      9933
      9929      9927      9933      9930      9929      9931      9930      9929      9932
      9931      9929      9932      9934      9933      9935      9934      9933      9936
      9935      9933      9936      9937      9938      9939      9937      9938      9940
      9937      9938      9941      9937      9942      9943      9937      9942      9944
      9937      9942      9945      9937      9946      9947      9937      9946      9948
      9937      9946      9949      9937      9950      9951      9937      9950      9952
      9937      9950      9953      9938      9937      9942      9938      9937      9946
      9938      9937      9950      9939      9938      9940      9939      9938      9941
      9940      9938      9941      9942      9937      9946      9942      9937      9950
      9943      9942      9944      9943      9942      9945      9944      9942      9945
      9946      9937      9950      9947      9946      9948      9947      9946      9949
      9948      9946      9949      9950      9953      9954      9950      9953      9955
      9950      9953      9959      9951      9950      9952      9951      9950      9953
      9952      9950      9953      9953      9959      9956      9954      9953      9955
      9954      9953      9959      9955      9953      9959      9956      9960      9961
      9957      9956      9958      9957      9956      9959      9957      9956      9960
      9958      9956      9959      9958      9956      9960      9959      9956      9960
      9960      9961      9962      9960      9961      9963      9960      9961      9964
      9961      9964      9965      9961      9964      9966      9961      9964      9972
      9962      9961      9963      9962      9961      9964      9963      9961      9964
      9964      9966      9967      9964      9972      9973      9964      9972      9974
      9964      9972      9975      9965      9964      9966      9965      9964      9972
      9966      9964      9972      9966      9967      9968      9966      9967      9969
      9967      9969      9970      9967      9969      9971      9967      9969      9981
      9968      9967      9969      9969      9981      9982      9969      9981      9983
      9969      9981      9984      9970      9969      9971      9970      9969      9981
      9971      9969      9981      9972      9975      9976      9973      9972      9974
      9973      9972      9975      9974      9972      9975      9975      9976      9977
      9975      9976      9978      9976      9978      9979      9976      9978      9980
      9976      9978     10026      9977      9976      9978      9978     10026     10027
      9978     10026     10028      9978     10026     10029      9979      9978      9980
      9979      9978     10026      9980      9978     10026      9981      9984      9985
      9981      9984      9986      9981      9984      9987      9982      9981      9983
      9982      9981      9984      9983      9981      9984      9984      9987      9988
      9984      9987      9989      9984      9987      9990      9985      9984      9986
      9985      9984      9987      9986      9984      9987      9987      9990      9991
      9987      9990      9992      9987      9990      9993      9988      9987      9989
      9988      9987      9990      9989      9987      9990      9990      9993      9994
      9990      9993      9995      9990      9993      9996      9991      9990      9992
      9991      9990      9993      9992      9990      9993      9993      9996      9997
      9993      9996      9998      9993      9996      9999      9994      9993      9995
      9994      9993      9996      9995      9993      9996      9996      9999     10000
      9996      9999     10001      9997      9996      9998      9997      9996      9999
      9998      9996      9999      9999     10001     10002      9999     10001     10003
     10000      9999     10001     10001     10003     10004     10001     10003     10005
     10001     10003     10006     10002     10001     10003     10003     10006     10007
     10003     10006     10008     10004     10003     10005     10004     10003     10006
     10005     10003     10006     10006     10008     10009     10006     10008     10010
     10007     10006     10008     10008     10010     10011     10008     10010     10012
     10008     10010     10013     10009     10008     10010     10010     10013     10014
     10010     10013     10015     10010     10013     10016     10011     10010     10012
     10011     10010     10013     10012     10010     10013     10013     10016     10017
     10013     10016     10018     10013     10016     10019     10014     10013     10015
     10014     10013     10016     10015     10013     10016     10016     10019     10020
     10016     10019     10021     10016     10019     10022     10017     10016     10018
     10017     10016     10019     10018     10016     10019     10019     10022     10023
     10019     10022     10024     10019     10022     10025     10020     10019     10021
     10020     10019     10022     10021     10019     10022     10023     10022     10024
     10023     10022     10025     10024     10022     10025     10026     10029     10030
     10026     10029     10031     10026     10029     10032     10027     10026     10028
     10027     10026     10029     10028     10026     10029     10029     10032     10033
     10029     10032     10034     10029     10032     10035     10030     10029     10031
     10030     10029     10032     10031     10029     10032     10032     10035     10036
     10032     10035     10037     10032     10035     10038     10033     10032     10034
     10033     10032     10035     10034     10032     10035     10035     10038     10039
     10035     10038     10040     10035     10038     10041     10036     10035     10037
     10036     10035     10038     10037     10035     10038     10038     10041     10042
     10038     10041     10043     10038     10041     10044     10039     10038     10040
     10039     10038     10041     10040     10038     10041     10041     10044     10045
     10041     10044     10046     10041     10044     10047     10042     10041     10043
     10042     10041     10044     10043     10041     10044     10044     10047     10048
     10044     10047     10049     10044     10047     10050     10045     10044     10046
     10045     10044     10047     10046     10044     10047     10047     10050     10051
     10047     10050     10052     10047     10050     10053     10048     10047     10049
     10048     10047     10050     10049     10047     10050     10050     10053     10054
     10050     10053     10055     10050     10053     10056     10051     10050     10052
     10051     10050     10053     10052     10050     10053     10053     10056     10057
     10053     10056     10058     10053     10056     10059     10054     10053     10055
     10054     10053     10056     10055     10053     10056     10056     10059     10060
     10056     10059     10061     10056     10059     10062     10057     10056     10058
     10057     10056     10059     10058     10056     10059     10059     10062     10063
     10059     10062     10064     10059     10062     10065     10060     10059     10061
     10060     10059     10062     10061     10059     10062     10062     10065     10066
     10062     10065     10067     10062     10065     10068     10063     10062     10064
     10063     10062     10065     10064     10062     10065     10065     10068     10069
     10065     10068     10070     10065     10068     10071     10066     10065     10067
     10066     10065     10068     10067     10065     10068     10068     10071     10072
     10068     10071     10073     10068     10071     10074     10069     10068     10070
     10069     10068     10071     10070     10068     10071     10072     10071     10073
     10072     10071     10074     10073     10071     10074     10075     10077     10078
     10075     10079     10080     10075     10079     10081     10075     10079     10082
     10075     10121     10118     10075     10121     10122     10075     10121     10123
     10076     10075     10077     10076     10075     10079     10076     10075     10121
     10077     10075     10079     10077     10075     10121     10079     10075     10121
     10079     10082     10083     10079     10082     10113     10080     10079     10081
     10080     10079     10082     10081     10079     10082     10082     10083     10084
     10082     10083     10085     10082     10113     10111     10082     10113     10114
     10082     10113     10118     10083     10082     10113     10083     10085     10086
     10083     10085     10087     10083     10085     10088     10084     10083     10085
     10085     10088     10089     10085     10088     10090     10085     10088     10111
     10086     10085     10087     10086     10085     10088     10087     10085     10088
     10088     10090     10091     10088     10090     10092     10088     10090     10100
     10088     10111     10108     10088     10111     10112     10088     10111     10113
     10089     10088     10090     10089     10088     10111     10090     10088     10111
     10090     10092     10093     10090     10092     10094     10090     10092     10095
     10090     10100     10098     10090     10100     10101     10090     10100     10105
     10091     10090     10092     10091     10090     10100     10092     10090     10100
     10092     10095     10096     10092     10095     10097     10092     10095     10098
     10093     10092     10094     10093     10092     10095     10094     10092     10095
     10095     10098     10099     10095     10098     10100     10095     10098     10124
     10096     10095     10097     10096     10095     10098     10097     10095     10098
     10098     10100     10101     10098     10100     10105     10098     10124     10125
     10098     10124     10126     10098     10124     10130     10099     10098     10100
     10099     10098     10124     10100     10098     10124     10100     10101     10102
     10100     10101     10103     10100     10101     10104     10100     10105     10106
     10100     10105     10107     10100     10105     10108     10101     10100     10105
     10102     10101     10103     10102     10101     10104     10103     10101     10104
     10105     10108     10109     10105     10108     10110     10105     10108     10111
     10106     10105     10107     10106     10105     10108     10107     10105     10108
     10108     10111     10112     10108     10111     10113     10109     10108     10110
     10109     10108     10111     10110     10108     10111     10111     10113     10114
     10111     10113     10118     10112     10111     10113     10113     10114     10115
     10113     10114     10116     10113     10114     10117     10113     10118     10119
     10113     10118     10120     10113     10118     10121     10114     10113     10118
     10115     10114     10116     10115     10114     10117     10116     10114     10117
     10118     10121     10122     10118     10121     10123     10119     10118     10120
     10119     10118     10121     10120     10118     10121     10122     10121     10123
     10124     10126     10127     10124     10126     10128     10124     10126     10129
     10124     10130     10131     10124     10130     10132     10124     10130     10133
     10125     10124     10126     10125     10124     10130     10126     10124     10130
     10127     10126     10128     10127     10126     10129     10128     10126     10129
     10130     10133     10134     10130     10133     10135     10130     10133     10136
     10131     10130     10132     10131     10130     10133     10132     10130     10133
     10133     10136     10137     10133     10136     10138     10133     10136     10139
     10134     10133     10135     10134     10133     10136     10135     10133     10136
     10136     10139     10140     10136     10139     10141     10136     10139     10145
     10137     10136     10138     10137     10136     10139     10138     10136     10139
     10139     10141     10142     10139     10141     10143     10139     10141     10144
     10139     10145     10146     10139     10145     10147     10139     10145     10148
     10140     10139     10141     10140     10139     10145     10141     10139     10145
     10142     10141     10143     10142     10141     10144     10143     10141     10144
     10146     10145     10147     10146     10145     10148     10147     10145     10148
     10149     10151     10152     10149     10153     10154     10149     10153     10155
     10149     10153     10156     10149     10195     10192     10149     10195     10196
     10149     10195     10197     10150     10149     10151     10150     10149     10153
     10150     10149     10195     10151     10149     10153     10151     10149     10195
     10153     10149     10195     10153     10156     10157     10153     10156     10187
     10154     10153     10155     10154     10153     10156     10155     10153     10156
     10156     10157     10158     10156     10157     10159     10156     10187     10185
     10156     10187     10188     10156     10187     10192     10157     10156     10187
     10157     10159     10160     10157     10159     10161     10157     10159     10162
     10158     10157     10159     10159     10162     10163     10159     10162     10164
     10159     10162     10185     10160     10159     10161     10160     10159     10162
     10161     10159     10162     10162     10164     10165     10162     10164     10166
     10162     10164     10174     10162     10185     10182     10162     10185     10186
     10162     10185     10187     10163     10162     10164     10163     10162     10185
     10164     10162     10185     10164     10166     10167     10164     10166     10168
     10164     10166     10169     10164     10174     10172     10164     10174     10175
     10164     10174     10179     10165     10164     10166     10165     10164     10174
     10166     10164     10174     10166     10169     10170     10166     10169     10171
     10166     10169     10172     10167     10166     10168     10167     10166     10169
     10168     10166     10169     10169     10172     10173     10169     10172     10174
     10169     10172     10198     10170     10169     10171     10170     10169     10172
     10171     10169     10172     10172     10174     10175     10172     10174     10179
     10172     10198     10199     10172     10198     10200     10172     10198     10204
     10173     10172     10174     10173     10172     10198     10174     10172     10198
     10174     10175     10176     10174     10175     10177     10174     10175     10178
     10174     10179     10180     10174     10179     10181     10174     10179     10182
     10175     10174     10179     10176     10175     10177     10176     10175     10178
     10177     10175     10178     10179     10182     10183     10179     10182     10184
     10179     10182     10185     10180     10179     10181     10180     10179     10182
     10181     10179     10182     10182     10185     10186     10182     10185     10187
     10183     10182     10184     10183     10182     10185     10184     10182     10185
     10185     10187     10188     10185     10187     10192     10186     10185     10187
     10187     10188     10189     10187     10188     10190     10187     10188     10191
     10187     10192     10193     10187     10192     10194     10187     10192     10195
     10188     10187     10192     10189     10188     10190     10189     10188     10191
     10190     10188     10191     10192     10195     10196     10192     10195     10197
     10193     10192     10194     10193     10192     10195     10194     10192     10195
     10196     10195     10197     10198     10200     10201     10198     10200     10202
     10198     10200     10203     10198     10204     10205     10198     10204     10206
     10198     10204     10207     10199     10198     10200     10199     10198     10204
     10200     10198     10204     10201     10200     10202     10201     10200     10203
     10202     10200     10203     10204     10207     10208     10204     10207     10209
     10204     10207     10210     10205     10204     10206     10205     10204     10207
     10206     10204     10207     10207     10210     10211     10207     10210     10212
     10207     10210     10213     10208     10207     10209     10208     10207     10210
     10209     10207     10210     10210     10213     10214     10210     10213     10215
     10210     10213     10219     10211     10210     10212     10211     10210     10213
     10212     10210     10213     10213     10215     10216     10213     10215     10217
     10213     10215     10218     10213     10219     10220     10213     10219     10221
     10213     10219     10222     10214     10213     10215     10214     10213     10219
     10215     10213     10219     10216     10215     10217     10216     10215     10218
     10217     10215     10218     10220     10219     10221     10220     10219     10222
     10221     10219     10222     10223     10227     10228     10223     10227     10229
     10223     10227     10230     10224     10223     10225     10224     10223     10226
     10224     10223     10227     10225     10223     10226     10225     10223     10227
     10226     10223     10227     10227     10230     10231     10227     10230     10232
     10227     10230     10236     10228     10227     10229     10228     10227     10230
     10229     10227     10230     10230     10236     10233     10231     10230     10232
     10231     10230     10236     10232     10230     10236     10233     10237     10238
     10234     10233     10235     10234     10233     10236     10234     10233     10237
     10235     10233     10236     10235     10233     10237     10236     10233     10237
     10237     10238     10239     10237     10238     10240     10237     10238     10241
     10238     10241     10242     10238     10241     10243     10238     10241     10249
     10239     10238     10240     10239     10238     10241     10240     10238     10241
     10241     10243     10244     10241     10249     10250     10241     10249     10251
     10241     10249     10252     10242     10241     10243     10242     10241     10249
     10243     10241     10249     10243     10244     10245     10243     10244     10246
     10244     10246     10247     10244     10246     10248     10244     10246     10258
     10245     10244     10246     10246     10258     10259     10246     10258     10260
     10246     10258     10261     10247     10246     10248     10247     10246     10258
     10248     10246     10258     10249     10252     10253     10250     10249     10251
     10250     10249     10252     10251     10249     10252     10252     10253     10254
     10252     10253     10255     10253     10255     10256     10253     10255     10257
     10253     10255     10305     10254     10253     10255     10255     10305     10306
     10255     10305     10307     10255     10305     10308     10256     10255     10257
     10256     10255     10305     10257     10255     10305     10258     10261     10262
     10258     10261     10263     10258     10261     10264     10259     10258     10260
     10259     10258     10261     10260     10258     10261     10261     10264     10265
     10261     10264     10266     10262     10261     10263     10262     10261     10264
     10263     10261     10264     10264     10266     10267     10264     10266     10268
     10265     10264     10266     10266     10268     10269     10266     10268     10270
     10266     10268     10271     10267     10266     10268     10268     10271     10272
     10268     10271     10273     10269     10268     10270     10269     10268     10271
     10270     10268     10271     10271     10273     10274     10271     10273     10275
     10272     10271     10273     10273     10275     10276     10273     10275     10277
     10273     10275     10278     10274     10273     10275     10275     10278     10279
     10275     10278     10280     10276     10275     10277     10276     10275     10278
     10277     10275     10278     10278     10280     10281     10278     10280     10282
     10279     10278     10280     10280     10282     10283     10280     10282     10284
     10280     10282     10285     10281     10280     10282     10282     10285     10286
     10282     10285     10287     10283     10282     10284     10283     10282     10285
     10284     10282     10285     10285     10287     10288     10285     10287     10289
     10286     10285     10287     10287     10289     10290     10287     10289     10291
     10287     10289     10292     10288     10287     10289     10289     10292     10293
     10289     10292     10294     10289     10292     10295     10290     10289     10291
     10290     10289     10292     10291     10289     10292     10292     10295     10296
     10292     10295     10297     10292     10295     10298     10293     10292     10294
     10293     10292     10295     10294     10292     10295     10295     10298     10299
     10295     10298     10300     10295     10298     10301     10296     10295     10297
     10296     10295     10298     10297     10295     10298     10298     10301     10302
     10298     10301     10303     10298     10301     10304     10299     10298     10300
     10299     10298     10301     10300     10298     10301     10302     10301     10303
     10302     10301     10304     10303     10301     10304     10305     10308     10309
     10305     10308     10310     10305     10308     10311     10306     10305     10307
     10306     10305     10308     10307     10305     10308     10308     10311     10312
     10308     10311     10313     10308     10311     10314     10309     10308     10310
     10309     10308     10311     10310     10308     10311     10311     10314     10315
     10311     10314     10316     10311     10314     10317     10312     10311     10313
     10312     10311     10314     10313     10311     10314     10314     10317     10318
     10314     10317     10319     10314     10317     10320     10315     10314     10316
     10315     10314     10317     10316     10314     10317     10317     10320     10321
     10317     10320     10322     10317     10320     10323     10318     10317     10319
     10318     10317     10320     10319     10317     10320     10320     10323     10324
     10320     10323     10325     10320     10323     10326     10321     10320     10322
     10321     10320     10323     10322     10320     10323     10323     10326     10327
     10323     10326     10328     10323     10326     10329     10324     10323     10325
     10324     10323     10326     10325     10323     10326     10326     10329     10330
     10326     10329     10331     10326     10329     10332     10327     10326     10328
     10327     10326     10329     10328     10326     10329     10329     10332     10333
     10329     10332     10334     10329     10332     10335     10330     10329     10331
     10330     10329     10332     10331     10329     10332     10332     10335     10336
     10332     10335     10337     10332     10335     10338     10333     10332     10334
     10333     10332     10335     10334     10332     10335     10335     10338     10339
     10335     10338     10340     10335     10338     10341     10336     10335     10337
     10336     10335     10338     10337     10335     10338     10338     10341     10342
     10338     10341     10343     10338     10341     10344     10339     10338     10340
     10339     10338     10341     10340     10338     10341     10341     10344     10345
     10341     10344     10346     10341     10344     10347     10342     10341     10343
     10342     10341     10344     10343     10341     10344     10344     10347     10348
     10344     10347     10349     10344     10347     10350     10345     10344     10346
     10345     10344     10347     10346     10344     10347     10347     10350     10351
     10347     10350     10352     10347     10350     10353     10348     10347     10349
     10348     10347     10350     10349     10347     10350     10351     10350     10352
     10351     10350     10353     10352     10350     10353     10354     10358     10359
     10354     10358     10360     10354     10358     10363     10355     10354     10356
     10355     10354     10357     10355     10354     10358     10356     10354     10357
     10356     10354     10358     10357     10354     10358     10358     10360     10361
     10358     10360     10362     10358     10363     10364     10358     10363     10365
     10358     10363     10369     10359     10358     10360     10359     10358     10363
     10360     10358     10363     10361     10360     10362     10363     10369     10366
     10364     10363     10365     10364     10363     10369     10365     10363     10369
     10366     10370     10371     10367     10366     10368     10367     10366     10369
     10367     10366     10370     10368     10366     10369     10368     10366     10370
     10369     10366     10370     10370     10371     10372     10370     10371     10373
     10370     10371     10374     10371     10374     10375     10371     10374     10376
     10371     10374     10382     10372     10371     10373     10372     10371     10374
     10373     10371     10374     10374     10376     10377     10374     10382     10383
     10374     10382     10384     10374     10382     10385     10375     10374     10376
     10375     10374     10382     10376     10374     10382     10376     10377     10378
     10376     10377     10379     10377     10379     10380     10377     10379     10381
     10377     10379     10391     10378     10377     10379     10379     10391     10392
     10379     10391     10393     10379     10391     10394     10380     10379     10381
     10380     10379     10391     10381     10379     10391     10382     10385     10386
     10383     10382     10384     10383     10382     10385     10384     10382     10385
     10385     10386     10387     10385     10386     10388     10386     10388     10389
     10386     10388     10390     10386     10388     10438     10387     10386     10388
     10388     10438     10439     10388     10438     10440     10388     10438     10441
     10389     10388     10390     10389     10388     10438     10390     10388     10438
     10391     10394     10395     10391     10394     10396     10391     10394     10397
     10392     10391     10393     10392     10391     10394     10393     10391     10394
     10394     10397     10398     10394     10397     10399     10395     10394     10396
     10395     10394     10397     10396     10394     10397     10397     10399     10400
     10397     10399     10401     10398     10397     10399     10399     10401     10402
     10399     10401     10403     10399     10401     10404     10400     10399     10401
     10401     10404     10405     10401     10404     10406     10402     10401     10403
     10402     10401     10404     10403     10401     10404     10404     10406     10407
     10404     10406     10408     10405     10404     10406     10406     10408     10409
     10406     10408     10410     10406     10408     10411     10407     10406     10408
     10408     10411     10412     10408     10411     10413     10409     10408     10410
     10409     10408     10411     10410     10408     10411     10411     10413     10414
     10411     10413     10415     10412     10411     10413     10413     10415     10416
     10413     10415     10417     10413     10415     10418     10414     10413     10415
     10415     10418     10419     10415     10418     10420     10416     10415     10417
     10416     10415     10418     10417     10415     10418     10418     10420     10421
     10418     10420     10422     10419     10418     10420     10420     10422     10423
     10420     10422     10424     10420     10422     10425     10421     10420     10422
     10422     10425     10426     10422     10425     10427     10422     10425     10428
     10423     10422     10424     10423     10422     10425     10424     10422     10425
     10425     10428     10429     10425     10428     10430     10425     10428     10431
     10426     10425     10427     10426     10425     10428     10427     10425     10428
     10428     10431     10432     10428     10431     10433     10428     10431     10434
     10429     10428     10430     10429     10428     10431     10430     10428     10431
     10431     10434     10435     10431     10434     10436     10431     10434     10437
     10432     10431     10433     10432     10431     10434     10433     10431     10434
     10435     10434     10436     10435     10434     10437     10436     10434     10437
     10438     10441     10442     10438     10441     10443     10438     10441     10444
     10439     10438     10440     10439     10438     10441     10440     10438     10441
     10441     10444     10445     10441     10444     10446     10441     10444     10447
     10442     10441     10443     10442     10441     10444     10443     10441     10444
     10444     10447     10448     10444     10447     10449     10444     10447     10450
     10445     10444     10446     10445     10444     10447     10446     10444     10447
     10447     10450     10451     10447     10450     10452     10447     10450     10453
     10448     10447     10449     10448     10447     10450     10449     10447     10450
     10450     10453     10454     10450     10453     10455     10450     10453     10456
     10451     10450     10452     10451     10450     10453     10452     10450     10453
     10453     10456     10457     10453     10456     10458     10453     10456     10459
     10454     10453     10455     10454     10453     10456     10455     10453     10456
     10456     10459     10460     10456     10459     10461     10456     10459     10462
     10457     10456     10458     10457     10456     10459     10458     10456     10459
     10459     10462     10463     10459     10462     10464     10459     10462     10465
     10460     10459     10461     10460     10459     10462     10461     10459     10462
     10462     10465     10466     10462     10465     10467     10462     10465     10468
     10463     10462     10464     10463     10462     10465     10464     10462     10465
     10465     10468     10469     10465     10468     10470     10465     10468     10471
     10466     10465     10467     10466     10465     10468     10467     10465     10468
     10468     10471     10472     10468     10471     10473     10468     10471     10474
     10469     10468     10470     10469     10468     10471     10470     10468     10471
     10471     10474     10475     10471     10474     10476     10471     10474     10477
     10472     10471     10473     10472     10471     10474     10473     10471     10474
     10474     10477     10478     10474     10477     10479     10474     10477     10480
     10475     10474     10476     10475     10474     10477     10476     10474     10477
     10477     10480     10481     10477     10480     10482     10477     10480     10483
     10478     10477     10479     10478     10477     10480     10479     10477     10480
     10480     10483     10484     10480     10483     10485     10480     10483     10486
     10481     10480     10482     10481     10480     10483     10482     10480     10483
     10484     10483     10485     10484     10483     10486     10485     10483     10486
     10487     10491     10492     10487     10491     10493     10487     10491     10496
     10488     10487     10489     10488     10487     10490     10488     10487     10491
     10489     10487     10490     10489     10487     10491     10490     10487     10491
     10491     10493     10494     10491     10493     10495     10491     10496     10497
     10491     10496     10498     10491     10496     10502     10492     10491     10493
     10492     10491     10496     10493     10491     10496     10494     10493     10495
     10496     10502     10499     10497     10496     10498     10497     10496     10502
     10498     10496     10502     10499     10503     10504     10500     10499     10501
     10500     10499     10502     10500     10499     10503     10501     10499     10502
     10501     10499     10503     10502     10499     10503     10503     10504     10505
     10503     10504     10506     10503     10504     10507     10504     10507     10508
     10504     10507     10509     10504     10507     10515     10505     10504     10506
     10505     10504     10507     10506     10504     10507     10507     10509     10510
     10507     10515     10516     10507     10515     10517     10507     10515     10518
     10508     10507     10509     10508     10507     10515     10509     10507     10515
     10509     10510     10511     10509     10510     10512     10510     10512     10513
     10510     10512     10514     10510     10512     10524     10511     10510     10512
     10512     10524     10525     10512     10524     10526     10512     10524     10527
     10513     10512     10514     10513     10512     10524     10514     10512     10524
     10515     10518     10519     10516     10515     10517     10516     10515     10518
     10517     10515     10518     10518     10519     10520     10518     10519     10521
     10519     10521     10522     10519     10521     10523     10519     10521     10571
     10520     10519     10521     10521     10571     10572     10521     10571     10573
     10521     10571     10574     10522     10521     10523     10522     10521     10571
     10523     10521     10571     10524     10527     10528     10524     10527     10529
     10524     10527     10530     10525     10524     10526     10525     10524     10527
     10526     10524     10527     10527     10530     10531     10527     10530     10532
     10528     10527     10529     10528     10527     10530     10529     10527     10530
     10530     10532     10533     10530     10532     10534     10531     10530     10532
     10532     10534     10535     10532     10534     10536     10532     10534     10537
     10533     10532     10534     10534     10537     10538     10534     10537     10539
     10535     10534     10536     10535     10534     10537     10536     10534     10537
     10537     10539     10540     10537     10539     10541     10538     10537     10539
     10539     10541     10542     10539     10541     10543     10539     10541     10544
     10540     10539     10541     10541     10544     10545     10541     10544     10546
     10542     10541     10543     10542     10541     10544     10543     10541     10544
     10544     10546     10547     10544     10546     10548     10545     10544     10546
     10546     10548     10549     10546     10548     10550     10546     10548     10551
     10547     10546     10548     10548     10551     10552     10548     10551     10553
     10549     10548     10550     10549     10548     10551     10550     10548     10551
     10551     10553     10554     10551     10553     10555     10552     10551     10553
     10553     10555     10556     10553     10555     10557     10553     10555     10558
     10554     10553     10555     10555     10558     10559     10555     10558     10560
     10555     10558     10561     10556     10555     10557     10556     10555     10558
     10557     10555     10558     10558     10561     10562     10558     10561     10563
     10558     10561     10564     10559     10558     10560     10559     10558     10561
     10560     10558     10561     10561     10564     10565     10561     10564     10566
     10561     10564     10567     10562     10561     10563     10562     10561     10564
     10563     10561     10564     10564     10567     10568     10564     10567     10569
     10564     10567     10570     10565     10564     10566     10565     10564     10567
     10566     10564     10567     10568     10567     10569     10568     10567     10570
     10569     10567     10570     10571     10574     10575     10571     10574     10576
     10571     10574     10577     10572     10571     10573     10572     10571     10574
     10573     10571     10574     10574     10577     10578     10574     10577     10579
     10574     10577     10580     10575     10574     10576     10575     10574     10577
     10576     10574     10577     10577     10580     10581     10577     10580     10582
     10577     10580     10583     10578     10577     10579     10578     10577     10580
     10579     10577     10580     10580     10583     10584     10580     10583     10585
     10580     10583     10586     10581     10580     10582     10581     10580     10583
     10582     10580     10583     10583     10586     10587     10583     10586     10588
     10583     10586     10589     10584     10583     10585     10584     10583     10586
     10585     10583     10586     10586     10589     10590     10586     10589     10591
     10586     10589     10592     10587     10586     10588     10587     10586     10589
     10588     10586     10589     10589     10592     10593     10589     10592     10594
     10589     10592     10595     10590     10589     10591     10590     10589     10592
     10591     10589     10592     10592     10595     10596     10592     10595     10597
     10592     10595     10598     10593     10592     10594     10593     10592     10595
     10594     10592     10595     10595     10598     10599     10595     10598     10600
     10595     10598     10601     10596     10595     10597     10596     10595     10598
     10597     10595     10598     10598     10601     10602     10598     10601     10603
     10598     10601     10604     10599     10598     10600     10599     10598     10601
     10600     10598     10601     10601     10604     10605     10601     10604     10606
     10601     10604     10607     10602     10601     10603     10602     10601     10604
     10603     10601     10604     10604     10607     10608     10604     10607     10609
     10604     10607     10610     10605     10604     10606     10605     10604     10607
     10606     10604     10607     10607     10610     10611     10607     10610     10612
     10607     10610     10613     10608     10607     10609     10608     10607     10610
     10609     10607     10610     10610     10613     10614     10610     10613     10615
     10610     10613     10616     10611     10610     10612     10611     10610     10613
     10612     10610     10613     10613     10616     10617     10613     10616     10618
     10613     10616     10619     10614     10613     10615     10614     10613     10616
     10615     10613     10616     10617     10616     10618     10617     10616     10619
     10618     10616     10619     10620     10622     10623     10620     10624     10625
     10620     10624     10626     10620     10624     10627     10620     10666     10663
     10620     10666     10667     10620     10666     10668     10621     10620     10622
     10621     10620     10624     10621     10620     10666     10622     10620     10624
     10622     10620     10666     10624     10620     10666     10624     10627     10628
     10624     10627     10658     10625     10624     10626     10625     10624     10627
     10626     10624     10627     10627     10628     10629     10627     10628     10630
     10627     10658     10656     10627     10658     10659     10627     10658     10663
     10628     10627     10658     10628     10630     10631     10628     10630     10632
     10628     10630     10633     10629     10628     10630     10630     10633     10634
     10630     10633     10635     10630     10633     10656     10631     10630     10632
     10631     10630     10633     10632     10630     10633     10633     10635     10636
     10633     10635     10637     10633     10635     10645     10633     10656     10653
     10633     10656     10657     10633     10656     10658     10634     10633     10635
     10634     10633     10656     10635     10633     10656     10635     10637     10638
     10635     10637     10639     10635     10637     10640     10635     10645     10643
     10635     10645     10646     10635     10645     10650     10636     10635     10637
     10636     10635     10645     10637     10635     10645     10637     10640     10641
     10637     10640     10642     10637     10640     10643     10638     10637     10639
     10638     10637     10640     10639     10637     10640     10640     10643     10644
     10640     10643     10645     10640     10643     10669     10641     10640     10642
     10641     10640     10643     10642     10640     10643     10643     10645     10646
     10643     10645     10650     10643     10669     10670     10643     10669     10671
     10643     10669     10675     10644     10643     10645     10644     10643     10669
     10645     10643     10669     10645     10646     10647     10645     10646     10648
     10645     10646     10649     10645     10650     10651     10645     10650     10652
     10645     10650     10653     10646     10645     10650     10647     10646     10648
     10647     10646     10649     10648     10646     10649     10650     10653     10654
     10650     10653     10655     10650     10653     10656     10651     10650     10652
     10651     10650     10653     10652     10650     10653     10653     10656     10657
     10653     10656     10658     10654     10653     10655     10654     10653     10656
     10655     10653     10656     10656     10658     10659     10656     10658     10663
     10657     10656     10658     10658     10659     10660     10658     10659     10661
     10658     10659     10662     10658     10663     10664     10658     10663     10665
     10658     10663     10666     10659     10658     10663     10660     10659     10661
     10660     10659     10662     10661     10659     10662     10663     10666     10667
     10663     10666     10668     10664     10663     10665     10664     10663     10666
     10665     10663     10666     10667     10666     10668     10669     10671     10672
     10669     10671     10673     10669     10671     10674     10669     10675     10676
     10669     10675     10677     10669     10675     10678     10670     10669     10671
     10670     10669     10675     10671     10669     10675     10672     10671     10673
     10672     10671     10674     10673     10671     10674     10675     10678     10679
     10675     10678     10680     10675     10678     10681     10676     10675     10677
     10676     10675     10678     10677     10675     10678     10678     10681     10682
     10678     10681     10683     10678     10681     10684     10679     10678     10680
     10679     10678     10681     10680     10678     10681     10681     10684     10685
     10681     10684     10686     10681     10684     10690     10682     10681     10683
     10682     10681     10684     10683     10681     10684     10684     10686     10687
     10684     10686     10688     10684     10686     10689     10684     10690     10691
     10684     10690     10692     10684     10690     10693     10685     10684     10686
     10685     10684     10690     10686     10684     10690     10687     10686     10688
     10687     10686     10689     10688     10686     10689     10691     10690     10692
     10691     10690     10693     10692     10690     10693     10694     10696     10697
     10694     10698     10699     10694     10698     10700     10694     10698     10701
     10694     10740     10737     10694     10740     10741     10694     10740     10742
     10695     10694     10696     10695     10694     10698     10695     10694     10740
     10696     10694     10698     10696     10694     10740     10698     10694     10740
     10698     10701     10702     10698     10701     10732     10699     10698     10700
     10699     10698     10701     10700     10698     10701     10701     10702     10703
     10701     10702     10704     10701     10732     10730     10701     10732     10733
     10701     10732     10737     10702     10701     10732     10702     10704     10705
     10702     10704     10706     10702     10704     10707     10703     10702     10704
     10704     10707     10708     10704     10707     10709     10704     10707     10730
     10705     10704     10706     10705     10704     10707     10706     10704     10707
     10707     10709     10710     10707     10709     10711     10707     10709     10719
     10707     10730     10727     10707     10730     10731     10707     10730     10732
     10708     10707     10709     10708     10707     10730     10709     10707     10730
     10709     10711     10712     10709     10711     10713     10709     10711     10714
     10709     10719     10717     10709     10719     10720     10709     10719     10724
     10710     10709     10711     10710     10709     10719     10711     10709     10719
     10711     10714     10715     10711     10714     10716     10711     10714     10717
     10712     10711     10713     10712     10711     10714     10713     10711     10714
     10714     10717     10718     10714     10717     10719     10714     10717     10743
     10715     10714     10716     10715     10714     10717     10716     10714     10717
     10717     10719     10720     10717     10719     10724     10717     10743     10744
     10717     10743     10745     10717     10743     10749     10718     10717     10719
     10718     10717     10743     10719     10717     10743     10719     10720     10721
     10719     10720     10722     10719     10720     10723     10719     10724     10725
     10719     10724     10726     10719     10724     10727     10720     10719     10724
     10721     10720     10722     10721     10720     10723     10722     10720     10723
     10724     10727     10728     10724     10727     10729     10724     10727     10730
     10725     10724     10726     10725     10724     10727     10726     10724     10727
     10727     10730     10731     10727     10730     10732     10728     10727     10729
     10728     10727     10730     10729     10727     10730     10730     10732     10733
     10730     10732     10737     10731     10730     10732     10732     10733     10734
     10732     10733     10735     10732     10733     10736     10732     10737     10738
     10732     10737     10739     10732     10737     10740     10733     10732     10737
     10734     10733     10735     10734     10733     10736     10735     10733     10736
     10737     10740     10741     10737     10740     10742     10738     10737     10739
     10738     10737     10740     10739     10737     10740     10741     10740     10742
     10743     10745     10746     10743     10745     10747     10743     10745     10748
     10743     10749     10750     10743     10749     10751     10743     10749     10752
     10744     10743     10745     10744     10743     10749     10745     10743     10749
     10746     10745     10747     10746     10745     10748     10747     10745     10748
     10749     10752     10753     10749     10752     10754     10749     10752     10755
     10750     10749     10751     10750     10749     10752     10751     10749     10752
     10752     10755     10756     10752     10755     10757     10752     10755     10758
     10753     10752     10754     10753     10752     10755     10754     10752     10755
     10755     10758     10759     10755     10758     10760     10755     10758     10764
     10756     10755     10757     10756     10755     10758     10757     10755     10758
     10758     10760     10761     10758     10760     10762     10758     10760     10763
     10758     10764     10765     10758     10764     10766     10758     10764     10767
     10759     10758     10760     10759     10758     10764     10760     10758     10764
     10761     10760     10762     10761     10760     10763     10762     10760     10763
     10765     10764     10766     10765     10764     10767     10766     10764     10767
     10768     10772     10773     10768     10772     10774     10768     10772     10775
     10769     10768     10770     10769     10768     10771     10769     10768     10772
     10770     10768     10771     10770     10768     10772     10771     10768     10772
     10772     10775     10776     10772     10775     10777     10772     10775     10781
     10773     10772     10774     10773     10772     10775     10774     10772     10775
     10775     10781     10778     10776     10775     10777     10776     10775     10781
     10777     10775     10781     10778     10782     10783     10779     10778     10780
     10779     10778     10781     10779     10778     10782     10780     10778     10781
     10780     10778     10782     10781     10778     10782     10782     10783     10784
     10782     10783     10785     10782     10783     10786     10783     10786     10787
     10783     10786     10788     10783     10786     10794     10784     10783     10785
     10784     10783     10786     10785     10783     10786     10786     10788     10789
     10786     10794     10795     10786     10794     10796     10786     10794     10797
     10787     10786     10788     10787     10786     10794     10788     10786     10794
     10788     10789     10790     10788     10789     10791     10789     10791     10792
     10789     10791     10793     10789     10791     10803     10790     10789     10791
     10791     10803     10804     10791     10803     10805     10791     10803     10806
     10792     10791     10793     10792     10791     10803     10793     10791     10803
     10794     10797     10798     10795     10794     10796     10795     10794     10797
     10796     10794     10797     10797     10798     10799     10797     10798     10800
     10798     10800     10801     10798     10800     10802     10798     10800     10850
     10799     10798     10800     10800     10850     10851     10800     10850     10852
     10800     10850     10853     10801     10800     10802     10801     10800     10850
     10802     10800     10850     10803     10806     10807     10803     10806     10808
     10803     10806     10809     10804     10803     10805     10804     10803     10806
     10805     10803     10806     10806     10809     10810     10806     10809     10811
     10806     10809     10812     10807     10806     10808     10807     10806     10809
     10808     10806     10809     10809     10812     10813     10809     10812     10814
     10809     10812     10815     10810     10809     10811     10810     10809     10812
     10811     10809     10812     10812     10815     10816     10812     10815     10817
     10812     10815     10818     10813     10812     10814     10813     10812     10815
     10814     10812     10815     10815     10818     10819     10815     10818     10820
     10815     10818     10821     10816     10815     10817     10816     10815     10818
     10817     10815     10818     10818     10821     10822     10818     10821     10823
     10819     10818     10820     10819     10818     10821     10820     10818     10821
     10821     10823     10824     10821     10823     10825     10822     10821     10823
     10823     10825     10826     10823     10825     10827     10823     10825     10828
     10824     10823     10825     10825     10828     10829     10825     10828     10830
     10825     10828     10831     10826     10825     10827     10826     10825     10828
     10827     10825     10828     10828     10831     10832     10828     10831     10833
     10828     10831     10834     10829     10828     10830     10829     10828     10831
     10830     10828     10831     10831     10834     10835     10831     10834     10836
     10831     10834     10837     10832     10831     10833     10832     10831     10834
     10833     10831     10834     10834     10837     10838     10834     10837     10839
     10834     10837     10840     10835     10834     10836     10835     10834     10837
     10836     10834     10837     10837     10840     10841     10837     10840     10842
     10837     10840     10843     10838     10837     10839     10838     10837     10840
     10839     10837     10840     10840     10843     10844     10840     10843     10845
     10840     10843     10846     10841     10840     10842     10841     10840     10843
     10842     10840     10843     10843     10846     10847     10843     10846     10848
     10843     10846     10849     10844     10843     10845     10844     10843     10846
     10845     10843     10846     10847     10846     10848     10847     10846     10849
     10848     10846     10849     10850     10853     10854     10850     10853     10855
     10850     10853     10856     10851     10850     10852     10851     10850     10853
     10852     10850     10853     10853     10856     10857     10853     10856     10858
     10853     10856     10859     10854     10853     10855     10854     10853     10856
     10855     10853     10856     10856     10859     10860     10856     10859     10861
     10856     10859     10862     10857     10856     10858     10857     10856     10859
     10858     10856     10859     10859     10862     10863     10859     10862     10864
     10859     10862     10865     10860     10859     10861     10860     10859     10862
     10861     10859     10862     10862     10865     10866     10862     10865     10867
     10862     10865     10868     10863     10862     10864     10863     10862     10865
     10864     10862     10865     10865     10868     10869     10865     10868     10870
     10865     10868     10871     10866     10865     10867     10866     10865     10868
     10867     10865     10868     10868     10871     10872     10868     10871     10873
     10868     10871     10874     10869     10868     10870     10869     10868     10871
     10870     10868     10871     10871     10874     10875     10871     10874     10876
     10871     10874     10877     10872     10871     10873     10872     10871     10874
     10873     10871     10874     10874     10877     10878     10874     10877     10879
     10874     10877     10880     10875     10874     10876     10875     10874     10877
     10876     10874     10877     10877     10880     10881     10877     10880     10882
     10877     10880     10883     10878     10877     10879     10878     10877     10880
     10879     10877     10880     10880     10883     10884     10880     10883     10885
     10880     10883     10886     10881     10880     10882     10881     10880     10883
     10882     10880     10883     10883     10886     10887     10883     10886     10888
     10883     10886     10889     10884     10883     10885     10884     10883     10886
     10885     10883     10886     10886     10889     10890     10886     10889     10891
     10886     10889     10892     10887     10886     10888     10887     10886     10889
     10888     10886     10889     10889     10892     10893     10889     10892     10894
     10889     10892     10895     10890     10889     10891     10890     10889     10892
     10891     10889     10892     10892     10895     10896     10892     10895     10897
     10892     10895     10898     10893     10892     10894     10893     10892     10895
     10894     10892     10895     10896     10895     10897     10896     10895     10898
     10897     10895     10898     10899     10900     10901     10899     10900     10902
     10899     10900     10903     10899     10904     10905     10899     10904     10906
     10899     10904     10907     10899     10908     10909     10899     10908     10910
     10899     10908     10911     10899     10912     10913     10899     10912     10914
     10899     10912     10915     10900     10899     10904     10900     10899     10908
     10900     10899     10912     10901     10900     10902     10901     10900     10903
     10902     10900     10903     10904     10899     10908     10904     10899     10912
     10905     10904     10906     10905     10904     10907     10906     10904     10907
     10908     10899     10912     10909     10908     10910     10909     10908     10911
     10910     10908     10911     10912     10915     10916     10912     10915     10917
     10912     10915     10922     10913     10912     10914     10913     10912     10915
     10914     10912     10915     10915     10922     10918     10916     10915     10917
     10916     10915     10922     10917     10915     10922     10918     10921     10923
     10919     10918     10920     10919     10918     10921     10919     10918     10922
     10920     10918     10921     10920     10918     10922     10921     10918     10922
     10921     10923     10924     10921     10923     10925     10921     10923     10928
     10923     10928     10926     10923     10928     10929     10923     10928     10930
     10924     10923     10925     10924     10923     10928     10925     10923     10928
     10926     10928     10929     10926     10928     10930     10926     10978     10979
     10926     10978     10980     10927     10926     10928     10927     10926     10978
     10928     10926     10978     10928     10930     10931     10928     10930     10932
     10928     10930     10934     10929     10928     10930     10930     10932     10933
     10930     10934     10935     10930     10934     10936     10931     10930     10932
     10931     10930     10934     10932     10930     10934     10934     10936     10937
     10934     10936     10938     10935     10934     10936     10936     10938     10939
     10936     10938     10940     10936     10938     10941     10937     10936     10938
     10938     10941     10942     10938     10941     10943     10938     10941     10944
     10939     10938     10940     10939     10938     10941     10940     10938     10941
     10941     10944     10945     10941     10944     10946     10941     10944     10947
     10942     10941     10943     10942     10941     10944     10943     10941     10944
     10944     10947     10948     10944     10947     10949     10944     10947     10950
     10945     10944     10946     10945     10944     10947     10946     10944     10947
     10947     10950     10951     10947     10950     10952     10947     10950     10953
     10948     10947     10949     10948     10947     10950     10949     10947     10950
     10950     10953     10954     10950     10953     10955     10950     10953     10956
     10951     10950     10952     10951     10950     10953     10952     10950     10953
     10953     10956     10957     10953     10956     10958     10953     10956     10959
     10954     10953     10955     10954     10953     10956     10955     10953     10956
     10956     10959     10960     10956     10959     10961     10956     10959     10962
     10957     10956     10958     10957     10956     10959     10958     10956     10959
     10959     10962     10963     10959     10962     10964     10959     10962     10965
     10960     10959     10961     10960     10959     10962     10961     10959     10962
     10962     10965     10966     10962     10965     10967     10962     10965     10968
     10963     10962     10964     10963     10962     10965     10964     10962     10965
     10965     10968     10969     10965     10968     10970     10965     10968     10971
     10966     10965     10967     10966     10965     10968     10967     10965     10968
     10968     10971     10972     10968     10971     10973     10968     10971     10974
     10969     10968     10970     10969     10968     10971     10970     10968     10971
     10971     10974     10975     10971     10974     10976     10971     10974     10977
     10972     10971     10973     10972     10971     10974     10973     10971     10974
     10975     10974     10976     10975     10974     10977     10976     10974     10977
     10978     10980     10981     10978     10980     10982     10978     10980     10983
     10979     10978     10980     10980     10983     10984     10980     10983     10985
     10980     10983     10986     10981     10980     10982     10981     10980     10983
     10982     10980     10983     10983     10986     10987     10983     10986     10988
     10983     10986     10989     10984     10983     10985     10984     10983     10986
     10985     10983     10986     10986     10989     10990     10986     10989     10991
     10986     10989     10992     10987     10986     10988     10987     10986     10989
     10988     10986     10989     10989     10992     10993     10989     10992     10994
     10989     10992     10995     10990     10989     10991     10990     10989     10992
     10991     10989     10992     10992     10995     10996     10992     10995     10997
     10992     10995     10998     10993     10992     10994     10993     10992     10995
     10994     10992     10995     10995     10998     10999     10995     10998     11000
     10995     10998     11001     10996     10995     10997     10996     10995     10998
     10997     10995     10998     10998     11001     11002     10998     11001     11003
     10999     10998     11000     10999     10998     11001     11000     10998     11001
     11001     11003     11004     11001     11003     11005     11002     11001     11003
     11003     11005     11006     11003     11005     11007     11003     11005     11008
     11004     11003     11005     11005     11008     11009     11005     11008     11010
     11005     11008     11011     11006     11005     11007     11006     11005     11008
     11007     11005     11008     11008     11011     11012     11008     11011     11013
     11008     11011     11014     11009     11008     11010     11009     11008     11011
     11010     11008     11011     11011     11014     11015     11011     11014     11016
     11011     11014     11017     11012     11011     11013     11012     11011     11014
     11013     11011     11014     11014     11017     11018     11014     11017     11019
     11014     11017     11020     11015     11014     11016     11015     11014     11017
     11016     11014     11017     11017     11020     11021     11017     11020     11022
     11017     11020     11023     11018     11017     11019     11018     11017     11020
     11019     11017     11020     11020     11023     11024     11020     11023     11025
     11020     11023     11026     11021     11020     11022     11021     11020     11023
     11022     11020     11023     11023     11026     11027     11023     11026     11028
     11023     11026     11029     11024     11023     11025     11024     11023     11026
     11025     11023     11026     11027     11026     11028     11027     11026     11029
     11028     11026     11029     11030     11031     11032     11030     11031     11033
     11030     11031     11034     11030     11035     11036     11030     11035     11037
     11030     11035     11038     11030     11039     11040     11030     11039     11041
     11030     11039     11042     11030     11043     11044     11030     11043     11045
     11030     11043     11046     11031     11030     11035     11031     11030     11039
     11031     11030     11043     11032     11031     11033     11032     11031     11034
     11033     11031     11034     11035     11030     11039     11035     11030     11043
     11036     11035     11037     11036     11035     11038     11037     11035     11038
     11039     11030     11043     11040     11039     11041     11040     11039     11042
     11041     11039     11042     11043     11046     11047     11043     11046     11048
     11043     11046     11053     11044     11043     11045     11044     11043     11046
     11045     11043     11046     11046     11053     11049     11047     11046     11048
     11047     11046     11053     11048     11046     11053     11049     11052     11054
     11050     11049     11051     11050     11049     11052     11050     11049     11053
     11051     11049     11052     11051     11049     11053     11052     11049     11053
     11052     11054     11055     11052     11054     11056     11052     11054     11059
     11054     11059     11057     11054     11059     11060     11054     11059     11061
     11055     11054     11056     11055     11054     11059     11056     11054     11059
     11057     11059     11060     11057     11059     11061     11057     11109     11110
     11057     11109     11111     11058     11057     11059     11058     11057     11109
     11059     11057     11109     11059     11061     11062     11059     11061     11063
     11059     11061     11065     11060     11059     11061     11061     11063     11064
     11061     11065     11066     11061     11065     11067     11062     11061     11063
     11062     11061     11065     11063     11061     11065     11065     11067     11068
     11065     11067     11069     11066     11065     11067     11067     11069     11070
     11067     11069     11071     11067     11069     11072     11068     11067     11069
     11069     11072     11073     11069     11072     11074     11069     11072     11075
     11070     11069     11071     11070     11069     11072     11071     11069     11072
     11072     11075     11076     11072     11075     11077     11072     11075     11078
     11073     11072     11074     11073     11072     11075     11074     11072     11075
     11075     11078     11079     11075     11078     11080     11075     11078     11081
     11076     11075     11077     11076     11075     11078     11077     11075     11078
     11078     11081     11082     11078     11081     11083     11078     11081     11084
     11079     11078     11080     11079     11078     11081     11080     11078     11081
     11081     11084     11085     11081     11084     11086     11081     11084     11087
     11082     11081     11083     11082     11081     11084     11083     11081     11084
     11084     11087     11088     11084     11087     11089     11084     11087     11090
     11085     11084     11086     11085     11084     11087     11086     11084     11087
     11087     11090     11091     11087     11090     11092     11087     11090     11093
     11088     11087     11089     11088     11087     11090     11089     11087     11090
     11090     11093     11094     11090     11093     11095     11090     11093     11096
     11091     11090     11092     11091     11090     11093     11092     11090     11093
     11093     11096     11097     11093     11096     11098     11093     11096     11099
     11094     11093     11095     11094     11093     11096     11095     11093     11096
     11096     11099     11100     11096     11099     11101     11096     11099     11102
     11097     11096     11098     11097     11096     11099     11098     11096     11099
     11099     11102     11103     11099     11102     11104     11099     11102     11105
     11100     11099     11101     11100     11099     11102     11101     11099     11102
     11102     11105     11106     11102     11105     11107     11102     11105     11108
     11103     11102     11104     11103     11102     11105     11104     11102     11105
     11106     11105     11107     11106     11105     11108     11107     11105     11108
     11109     11111     11112     11109     11111     11113     11109     11111     11114
     11110     11109     11111     11111     11114     11115     11111     11114     11116
     11111     11114     11117     11112     11111     11113     11112     11111     11114
     11113     11111     11114     11114     11117     11118     11114     11117     11119
     11114     11117     11120     11115     11114     11116     11115     11114     11117
     11116     11114     11117     11117     11120     11121     11117     11120     11122
     11117     11120     11123     11118     11117     11119     11118     11117     11120
     11119     11117     11120     11120     11123     11124     11120     11123     11125
     11120     11123     11126     11121     11120     11122     11121     11120     11123
     11122     11120     11123     11123     11126     11127     11123     11126     11128
     11123     11126     11129     11124     11123     11125     11124     11123     11126
     11125     11123     11126     11126     11129     11130     11126     11129     11131
     11126     11129     11132     11127     11126     11128     11127     11126     11129
     11128     11126     11129     11129     11132     11133     11129     11132     11134
     11130     11129     11131     11130     11129     11132     11131     11129     11132
     11132     11134     11135     11132     11134     11136     11133     11132     11134
     11134     11136     11137     11134     11136     11138     11134     11136     11139
     11135     11134     11136     11136     11139     11140     11136     11139     11141
     11136     11139     11142     11137     11136     11138     11137     11136     11139
     11138     11136     11139     11139     11142     11143     11139     11142     11144
     11139     11142     11145     11140     11139     11141     11140     11139     11142
     11141     11139     11142     11142     11145     11146     11142     11145     11147
     11142     11145     11148     11143     11142     11144     11143     11142     11145
     11144     11142     11145     11145     11148     11149     11145     11148     11150
     11145     11148     11151     11146     11145     11147     11146     11145     11148
     11147     11145     11148     11148     11151     11152     11148     11151     11153
     11148     11151     11154     11149     11148     11150     11149     11148     11151
     11150     11148     11151     11151     11154     11155     11151     11154     11156
     11151     11154     11157     11152     11151     11153     11152     11151     11154
     11153     11151     11154     11154     11157     11158     11154     11157     11159
     11154     11157     11160     11155     11154     11156     11155     11154     11157
     11156     11154     11157     11158     11157     11159     11158     11157     11160
     11159     11157     11160     11161     11162     11163     11161     11162     11164
     11161     11162     11165     11161     11166     11167     11161     11166     11168
     11161     11166     11169     11161     11170     11171     11161     11170     11172
     11161     11170     11173     11161     11174     11175     11161     11174     11176
     11161     11174     11177     11162     11161     11166     11162     11161     11170
     11162     11161     11174     11163     11162     11164     11163     11162     11165
     11164     11162     11165     11166     11161     11170     11166     11161     11174
     11167     11166     11168     11167     11166     11169     11168     11166     11169
     11170     11161     11174     11171     11170     11172     11171     11170     11173
     11172     11170     11173     11174     11177     11178     11174     11177     11179
     11174     11177     11184     11175     11174     11176     11175     11174     11177
     11176     11174     11177     11177     11184     11180     11178     11177     11179
     11178     11177     11184     11179     11177     11184     11180     11183     11185
     11181     11180     11182     11181     11180     11183     11181     11180     11184
     11182     11180     11183     11182     11180     11184     11183     11180     11184
     11183     11185     11186     11183     11185     11187     11183     11185     11190
     11185     11190     11188     11185     11190     11191     11185     11190     11192
     11186     11185     11187     11186     11185     11190     11187     11185     11190
     11188     11190     11191     11188     11190     11192     11188     11240     11241
     11188     11240     11242     11189     11188     11190     11189     11188     11240
     11190     11188     11240     11190     11192     11193     11190     11192     11194
     11190     11192     11196     11191     11190     11192     11192     11194     11195
     11192     11196     11197     11192     11196     11198     11193     11192     11194
     11193     11192     11196     11194     11192     11196     11196     11198     11199
     11196     11198     11200     11197     11196     11198     11198     11200     11201
     11198     11200     11202     11198     11200     11203     11199     11198     11200
     11200     11203     11204     11200     11203     11205     11200     11203     11206
     11201     11200     11202     11201     11200     11203     11202     11200     11203
     11203     11206     11207     11203     11206     11208     11203     11206     11209
     11204     11203     11205     11204     11203     11206     11205     11203     11206
     11206     11209     11210     11206     11209     11211     11206     11209     11212
     11207     11206     11208     11207     11206     11209     11208     11206     11209
     11209     11212     11213     11209     11212     11214     11209     11212     11215
     11210     11209     11211     11210     11209     11212     11211     11209     11212
     11212     11215     11216     11212     11215     11217     11212     11215     11218
     11213     11212     11214     11213     11212     11215     11214     11212     11215
     11215     11218     11219     11215     11218     11220     11215     11218     11221
     11216     11215     11217     11216     11215     11218     11217     11215     11218
     11218     11221     11222     11218     11221     11223     11218     11221     11224
     11219     11218     11220     11219     11218     11221     11220     11218     11221
     11221     11224     11225     11221     11224     11226     11221     11224     11227
     11222     11221     11223     11222     11221     11224     11223     11221     11224
     11224     11227     11228     11224     11227     11229     11224     11227     11230
     11225     11224     11226     11225     11224     11227     11226     11224     11227
     11227     11230     11231     11227     11230     11232     11227     11230     11233
     11228     11227     11229     11228     11227     11230     11229     11227     11230
     11230     11233     11234     11230     11233     11235     11230     11233     11236
     11231     11230     11232     11231     11230     11233     11232     11230     11233
     11233     11236     11237     11233     11236     11238     11233     11236     11239
     11234     11233     11235     11234     11233     11236     11235     11233     11236
     11237     11236     11238     11237     11236     11239     11238     11236     11239
     11240     11242     11243     11240     11242     11244     11240     11242     11245
     11241     11240     11242     11242     11245     11246     11242     11245     11247
     11242     11245     11248     11243     11242     11244     11243     11242     11245
     11244     11242     11245     11245     11248     11249     11245     11248     11250
     11245     11248     11251     11246     11245     11247     11246     11245     11248
     11247     11245     11248     11248     11251     11252     11248     11251     11253
     11248     11251     11254     11249     11248     11250     11249     11248     11251
     11250     11248     11251     11251     11254     11255     11251     11254     11256
     11251     11254     11257     11252     11251     11253     11252     11251     11254
     11253     11251     11254     11254     11257     11258     11254     11257     11259
     11254     11257     11260     11255     11254     11256     11255     11254     11257
     11256     11254     11257     11257     11260     11261     11257     11260     11262
     11257     11260     11263     11258     11257     11259     11258     11257     11260
     11259     11257     11260     11260     11263     11264     11260     11263     11265
     11261     11260     11262     11261     11260     11263     11262     11260     11263
     11263     11265     11266     11263     11265     11267     11264     11263     11265
     11265     11267     11268     11265     11267     11269     11265     11267     11270
     11266     11265     11267     11267     11270     11271     11267     11270     11272
     11267     11270     11273     11268     11267     11269     11268     11267     11270
     11269     11267     11270     11270     11273     11274     11270     11273     11275
     11270     11273     11276     11271     11270     11272     11271     11270     11273
     11272     11270     11273     11273     11276     11277     11273     11276     11278
     11273     11276     11279     11274     11273     11275     11274     11273     11276
     11275     11273     11276     11276     11279     11280     11276     11279     11281
     11276     11279     11282     11277     11276     11278     11277     11276     11279
     11278     11276     11279     11279     11282     11283     11279     11282     11284
     11279     11282     11285     11280     11279     11281     11280     11279     11282
     11281     11279     11282     11282     11285     11286     11282     11285     11287
     11282     11285     11288     11283     11282     11284     11283     11282     11285
     11284     11282     11285     11285     11288     11289     11285     11288     11290
     11285     11288     11291     11286     11285     11287     11286     11285     11288
     11287     11285     11288     11289     11288     11290     11289     11288     11291
     11290     11288     11291     11292     11294     11295     11292     11296     11297
     11292     11296     11298     11292     11296     11299     11292     11338     11335
     11292     11338     11339     11292     11338     11340     11293     11292     11294
     11293     11292     11296     11293     11292     11338     11294     11292     11296
     11294     11292     11338     11296     11292     11338     11296     11299     11300
     11296     11299     11330     11297     11296     11298     11297     11296     11299
     11298     11296     11299     11299     11300     11301     11299     11300     11302
     11299     11330     11328     11299     11330     11331     11299     11330     11335
     11300     11299     11330     11300     11302     11303     11300     11302     11304
     11300     11302     11305     11301     11300     11302     11302     11305     11306
     11302     11305     11307     11302     11305     11328     11303     11302     11304
     11303     11302     11305     11304     11302     11305     11305     11307     11308
     11305     11307     11309     11305     11307     11317     11305     11328     11325
     11305     11328     11329     11305     11328     11330     11306     11305     11307
     11306     11305     11328     11307     11305     11328     11307     11309     11310
     11307     11309     11311     11307     11309     11312     11307     11317     11315
     11307     11317     11318     11307     11317     11322     11308     11307     11309
     11308     11307     11317     11309     11307     11317     11309     11312     11313
     11309     11312     11314     11309     11312     11315     11310     11309     11311
     11310     11309     11312     11311     11309     11312     11312     11315     11316
     11312     11315     11317     11312     11315     11341     11313     11312     11314
     11313     11312     11315     11314     11312     11315     11315     11317     11318
     11315     11317     11322     11315     11341     11342     11315     11341     11343
     11315     11341     11347     11316     11315     11317     11316     11315     11341
     11317     11315     11341     11317     11318     11319     11317     11318     11320
     11317     11318     11321     11317     11322     11323     11317     11322     11324
     11317     11322     11325     11318     11317     11322     11319     11318     11320
     11319     11318     11321     11320     11318     11321     11322     11325     11326
     11322     11325     11327     11322     11325     11328     11323     11322     11324
     11323     11322     11325     11324     11322     11325     11325     11328     11329
     11325     11328     11330     11326     11325     11327     11326     11325     11328
     11327     11325     11328     11328     11330     11331     11328     11330     11335
     11329     11328     11330     11330     11331     11332     11330     11331     11333
     11330     11331     11334     11330     11335     11336     11330     11335     11337
     11330     11335     11338     11331     11330     11335     11332     11331     11333
     11332     11331     11334     11333     11331     11334     11335     11338     11339
     11335     11338     11340     11336     11335     11337     11336     11335     11338
     11337     11335     11338     11339     11338     11340     11341     11343     11344
     11341     11343     11345     11341     11343     11346     11341     11347     11348
     11341     11347     11349     11341     11347     11350     11342     11341     11343
     11342     11341     11347     11343     11341     11347     11344     11343     11345
     11344     11343     11346     11345     11343     11346     11347     11350     11351
     11347     11350     11352     11347     11350     11353     11348     11347     11349
     11348     11347     11350     11349     11347     11350     11350     11353     11354
     11350     11353     11355     11350     11353     11356     11351     11350     11352
     11351     11350     11353     11352     11350     11353     11353     11356     11357
     11353     11356     11358     11353     11356     11362     11354     11353     11355
     11354     11353     11356     11355     11353     11356     11356     11358     11359
     11356     11358     11360     11356     11358     11361     11356     11362     11363
     11356     11362     11364     11356     11362     11365     11357     11356     11358
     11357     11356     11362     11358     11356     11362     11359     11358     11360
     11359     11358     11361     11360     11358     11361     11363     11362     11364
     11363     11362     11365     11364     11362     11365     11366     11367     11368
     11366     11367     11369     11366     11367     11370     11366     11371     11372
     11366     11371     11373     11366     11371     11374     11366     11375     11376
     11366     11375     11377     11366     11375     11378     11366     11379     11380
     11366     11379     11381     11366     11379     11382     11367     11366     11371
     11367     11366     11375     11367     11366     11379     11368     11367     11369
     11368     11367     11370     11369     11367     11370     11371     11366     11375
     11371     11366     11379     11372     11371     11373     11372     11371     11374
     11373     11371     11374     11375     11366     11379     11376     11375     11377
     11376     11375     11378     11377     11375     11378     11379     11382     11383
     11379     11382     11384     11379     11382     11388     11380     11379     11381
     11380     11379     11382     11381     11379     11382     11382     11388     11385
     11383     11382     11384     11383     11382     11388     11384     11382     11388
     11385     11389     11390     11386     11385     11387     11386     11385     11388
     11386     11385     11389     11387     11385     11388     11387     11385     11389
     11388     11385     11389     11389     11390     11391     11389     11390     11392
     11389     11390     11393     11390     11393     11394     11390     11393     11395
     11390     11393     11401     11391     11390     11392     11391     11390     11393
     11392     11390     11393     11393     11395     11396     11393     11401     11402
     11393     11401     11403     11393     11401     11404     11394     11393     11395
     11394     11393     11401     11395     11393     11401     11395     11396     11397
     11395     11396     11398     11396     11398     11399     11396     11398     11400
     11396     11398     11410     11397     11396     11398     11398     11410     11411
     11398     11410     11412     11398     11410     11413     11399     11398     11400
     11399     11398     11410     11400     11398     11410     11401     11404     11405
     11402     11401     11403     11402     11401     11404     11403     11401     11404
     11404     11405     11406     11404     11405     11407     11405     11407     11408
     11405     11407     11409     11405     11407     11455     11406     11405     11407
     11407     11455     11456     11407     11455     11457     11407     11455     11458
     11408     11407     11409     11408     11407     11455     11409     11407     11455
     11410     11413     11414     11410     11413     11415     11410     11413     11416
     11411     11410     11412     11411     11410     11413     11412     11410     11413
     11413     11416     11417     11413     11416     11418     11413     11416     11419
     11414     11413     11415     11414     11413     11416     11415     11413     11416
     11416     11419     11420     11416     11419     11421     11416     11419     11422
     11417     11416     11418     11417     11416     11419     11418     11416     11419
     11419     11422     11423     11419     11422     11424     11419     11422     11425
     11420     11419     11421     11420     11419     11422     11421     11419     11422
     11422     11425     11426     11422     11425     11427     11422     11425     11428
     11423     11422     11424     11423     11422     11425     11424     11422     11425
     11425     11428     11429     11425     11428     11430     11426     11425     11427
     11426     11425     11428     11427     11425     11428     11428     11430     11431
     11428     11430     11432     11429     11428     11430     11430     11432     11433
     11430     11432     11434     11430     11432     11435     11431     11430     11432
     11432     11435     11436     11432     11435     11437     11433     11432     11434
     11433     11432     11435     11434     11432     11435     11435     11437     11438
     11435     11437     11439     11436     11435     11437     11437     11439     11440
     11437     11439     11441     11437     11439     11442     11438     11437     11439
     11439     11442     11443     11439     11442     11444     11439     11442     11445
     11440     11439     11441     11440     11439     11442     11441     11439     11442
     11442     11445     11446     11442     11445     11447     11442     11445     11448
     11443     11442     11444     11443     11442     11445     11444     11442     11445
     11445     11448     11449     11445     11448     11450     11445     11448     11451
     11446     11445     11447     11446     11445     11448     11447     11445     11448
     11448     11451     11452     11448     11451     11453     11448     11451     11454
     11449     11448     11450     11449     11448     11451     11450     11448     11451
     11452     11451     11453     11452     11451     11454     11453     11451     11454
     11455     11458     11459     11455     11458     11460     11455     11458     11461
     11456     11455     11457     11456     11455     11458     11457     11455     11458
     11458     11461     11462     11458     11461     11463     11458     11461     11464
     11459     11458     11460     11459     11458     11461     11460     11458     11461
     11461     11464     11465     11461     11464     11466     11461     11464     11467
     11462     11461     11463     11462     11461     11464     11463     11461     11464
     11464     11467     11468     11464     11467     11469     11464     11467     11470
     11465     11464     11466     11465     11464     11467     11466     11464     11467
     11467     11470     11471     11467     11470     11472     11467     11470     11473
     11468     11467     11469     11468     11467     11470     11469     11467     11470
     11470     11473     11474     11470     11473     11475     11470     11473     11476
     11471     11470     11472     11471     11470     11473     11472     11470     11473
     11473     11476     11477     11473     11476     11478     11473     11476     11479
     11474     11473     11475     11474     11473     11476     11475     11473     11476
     11476     11479     11480     11476     11479     11481     11476     11479     11482
     11477     11476     11478     11477     11476     11479     11478     11476     11479
     11479     11482     11483     11479     11482     11484     11479     11482     11485
     11480     11479     11481     11480     11479     11482     11481     11479     11482
     11482     11485     11486     11482     11485     11487     11482     11485     11488
     11483     11482     11484     11483     11482     11485     11484     11482     11485
     11485     11488     11489     11485     11488     11490     11485     11488     11491
     11486     11485     11487     11486     11485     11488     11487     11485     11488
     11488     11491     11492     11488     11491     11493     11488     11491     11494
     11489     11488     11490     11489     11488     11491     11490     11488     11491
     11491     11494     11495     11491     11494     11496     11491     11494     11497
     11492     11491     11493     11492     11491     11494     11493     11491     11494
     11494     11497     11498     11494     11497     11499     11494     11497     11500
     11495     11494     11496     11495     11494     11497     11496     11494     11497
     11497     11500     11501     11497     11500     11502     11497     11500     11503
     11498     11497     11499     11498     11497     11500     11499     11497     11500
     11501     11500     11502     11501     11500     11503     11502     11500     11503
     11504     11505     11506     11504     11505     11507     11504     11505     11508
     11504     11509     11510     11504     11509     11511     11504     11509     11512
     11504     11513     11514     11504     11513     11515     11504     11513     11516
     11504     11517     11518     11504     11517     11519     11504     11517     11520
     11505     11504     11509     11505     11504     11513     11505     11504     11517
     11506     11505     11507     11506     11505     11508     11507     11505     11508
     11509     11504     11513     11509     11504     11517     11510     11509     11511
     11510     11509     11512     11511     11509     11512     11513     11504     11517
     11514     11513     11515     11514     11513     11516     11515     11513     11516
     11517     11520     11521     11517     11520     11522     11517     11520     11526
     11518     11517     11519     11518     11517     11520     11519     11517     11520
     11520     11526     11523     11521     11520     11522     11521     11520     11526
     11522     11520     11526     11523     11527     11528     11524     11523     11525
     11524     11523     11526     11524     11523     11527     11525     11523     11526
     11525     11523     11527     11526     11523     11527     11527     11528     11529
     11527     11528     11530     11527     11528     11531     11528     11531     11532
     11528     11531     11533     11528     11531     11539     11529     11528     11530
     11529     11528     11531     11530     11528     11531     11531     11533     11534
     11531     11539     11540     11531     11539     11541     11531     11539     11542
     11532     11531     11533     11532     11531     11539     11533     11531     11539
     11533     11534     11535     11533     11534     11536     11534     11536     11537
     11534     11536     11538     11534     11536     11548     11535     11534     11536
     11536     11548     11549     11536     11548     11550     11536     11548     11551
     11537     11536     11538     11537     11536     11548     11538     11536     11548
     11539     11542     11543     11540     11539     11541     11540     11539     11542
     11541     11539     11542     11542     11543     11544     11542     11543     11545
     11543     11545     11546     11543     11545     11547     11543     11545     11593
     11544     11543     11545     11545     11593     11594     11545     11593     11595
     11545     11593     11596     11546     11545     11547     11546     11545     11593
     11547     11545     11593     11548     11551     11552     11548     11551     11553
     11548     11551     11554     11549     11548     11550     11549     11548     11551
     11550     11548     11551     11551     11554     11555     11551     11554     11556
     11551     11554     11557     11552     11551     11553     11552     11551     11554
     11553     11551     11554     11554     11557     11558     11554     11557     11559
     11554     11557     11560     11555     11554     11556     11555     11554     11557
     11556     11554     11557     11557     11560     11561     11557     11560     11562
     11557     11560     11563     11558     11557     11559     11558     11557     11560
     11559     11557     11560     11560     11563     11564     11560     11563     11565
     11560     11563     11566     11561     11560     11562     11561     11560     11563
     11562     11560     11563     11563     11566     11567     11563     11566     11568
     11564     11563     11565     11564     11563     11566     11565     11563     11566
     11566     11568     11569     11566     11568     11570     11567     11566     11568
     11568     11570     11571     11568     11570     11572     11568     11570     11573
     11569     11568     11570     11570     11573     11574     11570     11573     11575
     11571     11570     11572     11571     11570     11573     11572     11570     11573
     11573     11575     11576     11573     11575     11577     11574     11573     11575
     11575     11577     11578     11575     11577     11579     11575     11577     11580
     11576     11575     11577     11577     11580     11581     11577     11580     11582
     11577     11580     11583     11578     11577     11579     11578     11577     11580
     11579     11577     11580     11580     11583     11584     11580     11583     11585
     11580     11583     11586     11581     11580     11582     11581     11580     11583
     11582     11580     11583     11583     11586     11587     11583     11586     11588
     11583     11586     11589     11584     11583     11585     11584     11583     11586
     11585     11583     11586     11586     11589     11590     11586     11589     11591
     11586     11589     11592     11587     11586     11588     11587     11586     11589
     11588     11586     11589     11590     11589     11591     11590     11589     11592
     11591     11589     11592     11593     11596     11597     11593     11596     11598
     11593     11596     11599     11594     11593     11595     11594     11593     11596
     11595     11593     11596     11596     11599     11600     11596     11599     11601
     11596     11599     11602     11597     11596     11598     11597     11596     11599
     11598     11596     11599     11599     11602     11603     11599     11602     11604
     11599     11602     11605     11600     11599     11601     11600     11599     11602
     11601     11599     11602     11602     11605     11606     11602     11605     11607
     11602     11605     11608     11603     11602     11604     11603     11602     11605
     11604     11602     11605     11605     11608     11609     11605     11608     11610
     11605     11608     11611     11606     11605     11607     11606     11605     11608
     11607     11605     11608     11608     11611     11612     11608     11611     11613
     11608     11611     11614     11609     11608     11610     11609     11608     11611
     11610     11608     11611     11611     11614     11615     11611     11614     11616
     11611     11614     11617     11612     11611     11613     11612     11611     11614
     11613     11611     11614     11614     11617     11618     11614     11617     11619
     11614     11617     11620     11615     11614     11616     11615     11614     11617
     11616     11614     11617     11617     11620     11621     11617     11620     11622
     11617     11620     11623     11618     11617     11619     11618     11617     11620
     11619     11617     11620     11620     11623     11624     11620     11623     11625
     11620     11623     11626     11621     11620     11622     11621     11620     11623
     11622     11620     11623     11623     11626     11627     11623     11626     11628
     11623     11626     11629     11624     11623     11625     11624     11623     11626
     11625     11623     11626     11626     11629     11630     11626     11629     11631
     11626     11629     11632     11627     11626     11628     11627     11626     11629
     11628     11626     11629     11629     11632     11633     11629     11632     11634
     11629     11632     11635     11630     11629     11631     11630     11629     11632
     11631     11629     11632     11632     11635     11636     11632     11635     11637
     11632     11635     11638     11633     11632     11634     11633     11632     11635
     11634     11632     11635     11635     11638     11639     11635     11638     11640
     11635     11638     11641     11636     11635     11637     11636     11635     11638
     11637     11635     11638     11639     11638     11640     11639     11638     11641
     11640     11638     11641     11642     11644     11645     11642     11646     11647
     11642     11646     11648     11642     11646     11649     11642     11688     11685
     11642     11688     11689     11642     11688     11690     11643     11642     11644
     11643     11642     11646     11643     11642     11688     11644     11642     11646
     11644     11642     11688     11646     11642     11688     11646     11649     11650
     11646     11649     11680     11647     11646     11648     11647     11646     11649
     11648     11646     11649     11649     11650     11651     11649     11650     11652
     11649     11680     11678     11649     11680     11681     11649     11680     11685
     11650     11649     11680     11650     11652     11653     11650     11652     11654
     11650     11652     11655     11651     11650     11652     11652     11655     11656
     11652     11655     11657     11652     11655     11678     11653     11652     11654
     11653     11652     11655     11654     11652     11655     11655     11657     11658
     11655     11657     11659     11655     11657     11667     11655     11678     11675
     11655     11678     11679     11655     11678     11680     11656     11655     11657
     11656     11655     11678     11657     11655     11678     11657     11659     11660
     11657     11659     11661     11657     11659     11662     11657     11667     11665
     11657     11667     11668     11657     11667     11672     11658     11657     11659
     11658     11657     11667     11659     11657     11667     11659     11662     11663
     11659     11662     11664     11659     11662     11665     11660     11659     11661
     11660     11659     11662     11661     11659     11662     11662     11665     11666
     11662     11665     11667     11662     11665     11691     11663     11662     11664
     11663     11662     11665     11664     11662     11665     11665     11667     11668
     11665     11667     11672     11665     11691     11692     11665     11691     11693
     11665     11691     11697     11666     11665     11667     11666     11665     11691
     11667     11665     11691     11667     11668     11669     11667     11668     11670
     11667     11668     11671     11667     11672     11673     11667     11672     11674
     11667     11672     11675     11668     11667     11672     11669     11668     11670
     11669     11668     11671     11670     11668     11671     11672     11675     11676
     11672     11675     11677     11672     11675     11678     11673     11672     11674
     11673     11672     11675     11674     11672     11675     11675     11678     11679
     11675     11678     11680     11676     11675     11677     11676     11675     11678
     11677     11675     11678     11678     11680     11681     11678     11680     11685
     11679     11678     11680     11680     11681     11682     11680     11681     11683
     11680     11681     11684     11680     11685     11686     11680     11685     11687
     11680     11685     11688     11681     11680     11685     11682     11681     11683
     11682     11681     11684     11683     11681     11684     11685     11688     11689
     11685     11688     11690     11686     11685     11687     11686     11685     11688
     11687     11685     11688     11689     11688     11690     11691     11693     11694
     11691     11693     11695     11691     11693     11696     11691     11697     11698
     11691     11697     11699     11691     11697     11700     11692     11691     11693
     11692     11691     11697     11693     11691     11697     11694     11693     11695
     11694     11693     11696     11695     11693     11696     11697     11700     11701
     11697     11700     11702     11697     11700     11703     11698     11697     11699
     11698     11697     11700     11699     11697     11700     11700     11703     11704
     11700     11703     11705     11700     11703     11706     11701     11700     11702
     11701     11700     11703     11702     11700     11703     11703     11706     11707
     11703     11706     11708     11703     11706     11712     11704     11703     11705
     11704     11703     11706     11705     11703     11706     11706     11708     11709
     11706     11708     11710     11706     11708     11711     11706     11712     11713
     11706     11712     11714     11706     11712     11715     11707     11706     11708
     11707     11706     11712     11708     11706     11712     11709     11708     11710
     11709     11708     11711     11710     11708     11711     11713     11712     11714
     11713     11712     11715     11714     11712     11715     11716     11717     11718
     11716     11717     11719     11716     11717     11732     11716     11720     11721
     11716     11720     11722     11716     11720     11723     11716     11724     11725
     11716     11724     11726     11716     11724     11727     11716     11728     11729
     11716     11728     11730     11716     11728     11731     11717     11716     11720
     11717     11716     11724     11717     11716     11728     11717     11732     11733
     11717     11732     11734     11717     11732     11738     11718     11717     11719
     11718     11717     11732     11719     11717     11732     11720     11716     11724
     11720     11716     11728     11721     11720     11722     11721     11720     11723
     11722     11720     11723     11724     11716     11728     11725     11724     11726
     11725     11724     11727     11726     11724     11727     11729     11728     11730
     11729     11728     11731     11730     11728     11731     11732     11738     11735
     11733     11732     11734     11733     11732     11738     11734     11732     11738
     11735     11739     11740     11736     11735     11737     11736     11735     11738
     11736     11735     11739     11737     11735     11738     11737     11735     11739
     11738     11735     11739     11739     11740     11741     11739     11740     11742
     11739     11740     11743     11740     11743     11744     11740     11743     11745
     11740     11743     11751     11741     11740     11742     11741     11740     11743
     11742     11740     11743     11743     11745     11746     11743     11751     11752
     11743     11751     11753     11743     11751     11754     11744     11743     11745
     11744     11743     11751     11745     11743     11751     11745     11746     11747
     11745     11746     11748     11746     11748     11749     11746     11748     11750
     11746     11748     11760     11747     11746     11748     11748     11760     11761
     11748     11760     11762     11748     11760     11763     11749     11748     11750
     11749     11748     11760     11750     11748     11760     11751     11754     11755
     11752     11751     11753     11752     11751     11754     11753     11751     11754
     11754     11755     11756     11754     11755     11757     11755     11757     11758
     11755     11757     11759     11755     11757     11807     11756     11755     11757
     11757     11807     11808     11757     11807     11809     11757     11807     11810
     11758     11757     11759     11758     11757     11807     11759     11757     11807
     11760     11763     11764     11760     11763     11765     11760     11763     11766
     11761     11760     11762     11761     11760     11763     11762     11760     11763
     11763     11766     11767     11763     11766     11768     11763     11766     11769
     11764     11763     11765     11764     11763     11766     11765     11763     11766
     11766     11769     11770     11766     11769     11771     11766     11769     11772
     11767     11766     11768     11767     11766     11769     11768     11766     11769
     11769     11772     11773     11769     11772     11774     11769     11772     11775
     11770     11769     11771     11770     11769     11772     11771     11769     11772
     11772     11775     11776     11772     11775     11777     11772     11775     11778
     11773     11772     11774     11773     11772     11775     11774     11772     11775
     11775     11778     11779     11775     11778     11780     11776     11775     11777
     11776     11775     11778     11777     11775     11778     11778     11780     11781
     11778     11780     11782     11779     11778     11780     11780     11782     11783
     11780     11782     11784     11780     11782     11785     11781     11780     11782
     11782     11785     11786     11782     11785     11787     11782     11785     11788
     11783     11782     11784     11783     11782     11785     11784     11782     11785
     11785     11788     11789     11785     11788     11790     11785     11788     11791
     11786     11785     11787     11786     11785     11788     11787     11785     11788
     11788     11791     11792     11788     11791     11793     11788     11791     11794
     11789     11788     11790     11789     11788     11791     11790     11788     11791
     11791     11794     11795     11791     11794     11796     11791     11794     11797
     11792     11791     11793     11792     11791     11794     11793     11791     11794
     11794     11797     11798     11794     11797     11799     11794     11797     11800
     11795     11794     11796     11795     11794     11797     11796     11794     11797
     11797     11800     11801     11797     11800     11802     11797     11800     11803
     11798     11797     11799     11798     11797     11800     11799     11797     11800
     11800     11803     11804     11800     11803     11805     11800     11803     11806
     11801     11800     11802     11801     11800     11803     11802     11800     11803
     11804     11803     11805     11804     11803     11806     11805     11803     11806
     11807     11810     11811     11807     11810     11812     11807     11810     11813
     11808     11807     11809     11808     11807     11810     11809     11807     11810
     11810     11813     11814     11810     11813     11815     11810     11813     11816
     11811     11810     11812     11811     11810     11813     11812     11810     11813
     11813     11816     11817     11813     11816     11818     11813     11816     11819
     11814     11813     11815     11814     11813     11816     11815     11813     11816
     11816     11819     11820     11816     11819     11821     11816     11819     11822
     11817     11816     11818     11817     11816     11819     11818     11816     11819
     11819     11822     11823     11819     11822     11824     11819     11822     11825
     11820     11819     11821     11820     11819     11822     11821     11819     11822
     11822     11825     11826     11822     11825     11827     11822     11825     11828
     11823     11822     11824     11823     11822     11825     11824     11822     11825
     11825     11828     11829     11825     11828     11830     11825     11828     11831
     11826     11825     11827     11826     11825     11828     11827     11825     11828
     11828     11831     11832     11828     11831     11833     11828     11831     11834
     11829     11828     11830     11829     11828     11831     11830     11828     11831
     11831     11834     11835     11831     11834     11836     11831     11834     11837
     11832     11831     11833     11832     11831     11834     11833     11831     11834
     11834     11837     11838     11834     11837     11839     11834     11837     11840
     11835     11834     11836     11835     11834     11837     11836     11834     11837
     11837     11840     11841     11837     11840     11842     11837     11840     11843
     11838     11837     11839     11838     11837     11840     11839     11837     11840
     11840     11843     11844     11840     11843     11845     11840     11843     11846
     11841     11840     11842     11841     11840     11843     11842     11840     11843
     11843     11846     11847     11843     11846     11848     11843     11846     11849
     11844     11843     11845     11844     11843     11846     11845     11843     11846
     11847     11846     11848     11847     11846     11849     11848     11846     11849
     11850     11854     11855     11850     11854     11856     11850     11854     11857
     11851     11850     11852     11851     11850     11853     11851     11850     11854
     11852     11850     11853     11852     11850     11854     11853     11850     11854
     11854     11857     11858     11854     11857     11859     11854     11857     11863
     11855     11854     11856     11855     11854     11857     11856     11854     11857
     11857     11863     11860     11858     11857     11859     11858     11857     11863
     11859     11857     11863     11860     11864     11865     11861     11860     11862
     11861     11860     11863     11861     11860     11864     11862     11860     11863
     11862     11860     11864     11863     11860     11864     11864     11865     11866
     11864     11865     11867     11864     11865     11868     11865     11868     11869
     11865     11868     11870     11865     11868     11876     11866     11865     11867
     11866     11865     11868     11867     11865     11868     11868     11870     11871
     11868     11876     11877     11868     11876     11878     11868     11876     11879
     11869     11868     11870     11869     11868     11876     11870     11868     11876
     11870     11871     11872     11870     11871     11873     11871     11873     11874
     11871     11873     11875     11871     11873     11885     11872     11871     11873
     11873     11885     11886     11873     11885     11887     11873     11885     11888
     11874     11873     11875     11874     11873     11885     11875     11873     11885
     11876     11879     11880     11877     11876     11878     11877     11876     11879
     11878     11876     11879     11879     11880     11881     11879     11880     11882
     11880     11882     11883     11880     11882     11884     11880     11882     11932
     11881     11880     11882     11882     11932     11933     11882     11932     11934
     11882     11932     11935     11883     11882     11884     11883     11882     11932
     11884     11882     11932     11885     11888     11889     11885     11888     11890
     11885     11888     11891     11886     11885     11887     11886     11885     11888
     11887     11885     11888     11888     11891     11892     11888     11891     11893
     11889     11888     11890     11889     11888     11891     11890     11888     11891
     11891     11893     11894     11891     11893     11895     11892     11891     11893
     11893     11895     11896     11893     11895     11897     11893     11895     11898
     11894     11893     11895     11895     11898     11899     11895     11898     11900
     11896     11895     11897     11896     11895     11898     11897     11895     11898
     11898     11900     11901     11898     11900     11902     11899     11898     11900
     11900     11902     11903     11900     11902     11904     11900     11902     11905
     11901     11900     11902     11902     11905     11906     11902     11905     11907
     11903     11902     11904     11903     11902     11905     11904     11902     11905
     11905     11907     11908     11905     11907     11909     11906     11905     11907
     11907     11909     11910     11907     11909     11911     11907     11909     11912
     11908     11907     11909     11909     11912     11913     11909     11912     11914
     11910     11909     11911     11910     11909     11912     11911     11909     11912
     11912     11914     11915     11912     11914     11916     11913     11912     11914
     11914     11916     11917     11914     11916     11918     11914     11916     11919
     11915     11914     11916     11916     11919     11920     11916     11919     11921
     11916     11919     11922     11917     11916     11918     11917     11916     11919
     11918     11916     11919     11919     11922     11923     11919     11922     11924
     11919     11922     11925     11920     11919     11921     11920     11919     11922
     11921     11919     11922     11922     11925     11926     11922     11925     11927
     11922     11925     11928     11923     11922     11924     11923     11922     11925
     11924     11922     11925     11925     11928     11929     11925     11928     11930
     11925     11928     11931     11926     11925     11927     11926     11925     11928
     11927     11925     11928     11929     11928     11930     11929     11928     11931
     11930     11928     11931     11932     11935     11936     11932     11935     11937
     11932     11935     11938     11933     11932     11934     11933     11932     11935
     11934     11932     11935     11935     11938     11939     11935     11938     11940
     11935     11938     11941     11936     11935     11937     11936     11935     11938
     11937     11935     11938     11938     11941     11942     11938     11941     11943
     11938     11941     11944     11939     11938     11940     11939     11938     11941
     11940     11938     11941     11941     11944     11945     11941     11944     11946
     11941     11944     11947     11942     11941     11943     11942     11941     11944
     11943     11941     11944     11944     11947     11948     11944     11947     11949
     11944     11947     11950     11945     11944     11946     11945     11944     11947
     11946     11944     11947     11947     11950     11951     11947     11950     11952
     11947     11950     11953     11948     11947     11949     11948     11947     11950
     11949     11947     11950     11950     11953     11954     11950     11953     11955
     11950     11953     11956     11951     11950     11952     11951     11950     11953
     11952     11950     11953     11953     11956     11957     11953     11956     11958
     11953     11956     11959     11954     11953     11955     11954     11953     11956
     11955     11953     11956     11956     11959     11960     11956     11959     11961
     11956     11959     11962     11957     11956     11958     11957     11956     11959
     11958     11956     11959     11959     11962     11963     11959     11962     11964
     11959     11962     11965     11960     11959     11961     11960     11959     11962
     11961     11959     11962     11962     11965     11966     11962     11965     11967
     11962     11965     11968     11963     11962     11964     11963     11962     11965
     11964     11962     11965     11965     11968     11969     11965     11968     11970
     11965     11968     11971     11966     11965     11967     11966     11965     11968
     11967     11965     11968     11968     11971     11972     11968     11971     11973
     11968     11971     11974     11969     11968     11970     11969     11968     11971
     11970     11968     11971     11971     11974     11975     11971     11974     11976
     11971     11974     11977     11972     11971     11973     11972     11971     11974
     11973     11971     11974     11974     11977     11978     11974     11977     11979
     11974     11977     11980     11975     11974     11976     11975     11974     11977
     11976     11974     11977     11978     11977     11979     11978     11977     11980
     11979     11977     11980     11981     11982     11983     11981     11982     11984
     11981     11982     11985     11981     11986     11987     11981     11986     11988
     11981     11986     11989     11981     11990     11991     11981     11990     11992
     11981     11990     11993     11981     11994     11995     11981     11994     11996
     11981     11994     11997     11982     11981     11986     11982     11981     11990
     11982     11981     11994     11983     11982     11984     11983     11982     11985
     11984     11982     11985     11986     11981     11990     11986     11981     11994
     11987     11986     11988     11987     11986     11989     11988     11986     11989
     11990     11981     11994     11991     11990     11992     11991     11990     11993
     11992     11990     11993     11994     11997     11998     11994     11997     11999
     11994     11997     12004     11995     11994     11996     11995     11994     11997
     11996     11994     11997     11997     12004     12000     11998     11997     11999
     11998     11997     12004     11999     11997     12004     12000     12003     12005
     12001     12000     12002     12001     12000     12003     12001     12000     12004
     12002     12000     12003     12002     12000     12004     12003     12000     12004
     12003     12005     12006     12003     12005     12007     12003     12005     12010
     12005     12010     12008     12005     12010     12011     12005     12010     12012
     12006     12005     12007     12006     12005     12010     12007     12005     12010
     12008     12010     12011     12008     12010     12012     12008     12060     12061
     12008     12060     12062     12009     12008     12010     12009     12008     12060
     12010     12008     12060     12010     12012     12013     12010     12012     12014
     12010     12012     12016     12011     12010     12012     12012     12014     12015
     12012     12016     12017     12012     12016     12018     12013     12012     12014
     12013     12012     12016     12014     12012     12016     12016     12018     12019
     12016     12018     12020     12017     12016     12018     12018     12020     12021
     12018     12020     12022     12018     12020     12023     12019     12018     12020
     12020     12023     12024     12020     12023     12025     12020     12023     12026
     12021     12020     12022     12021     12020     12023     12022     12020     12023
     12023     12026     12027     12023     12026     12028     12023     12026     12029
     12024     12023     12025     12024     12023     12026     12025     12023     12026
     12026     12029     12030     12026     12029     12031     12026     12029     12032
     12027     12026     12028     12027     12026     12029     12028     12026     12029
     12029     12032     12033     12029     12032     12034     12029     12032     12035
     12030     12029     12031     12030     12029     12032     12031     12029     12032
     12032     12035     12036     12032     12035     12037     12032     12035     12038
     12033     12032     12034     12033     12032     12035     12034     12032     12035
     12035     12038     12039     12035     12038     12040     12035     12038     12041
     12036     12035     12037     12036     12035     12038     12037     12035     12038
     12038     12041     12042     12038     12041     12043     12038     12041     12044
     12039     12038     12040     12039     12038     12041     12040     12038     12041
     12041     12044     12045     12041     12044     12046     12041     12044     12047
     12042     12041     12043     12042     12041     12044     12043     12041     12044
     12044     12047     12048     12044     12047     12049     12044     12047     12050
     12045     12044     12046     12045     12044     12047     12046     12044     12047
     12047     12050     12051     12047     12050     12052     12047     12050     12053
     12048     12047     12049     12048     12047     12050     12049     12047     12050
     12050     12053     12054     12050     12053     12055     12050     12053     12056
     12051     12050     12052     12051     12050     12053     12052     12050     12053
     12053     12056     12057     12053     12056     12058     12053     12056     12059
     12054     12053     12055     12054     12053     12056     12055     12053     12056
     12057     12056     12058     12057     12056     12059     12058     12056     12059
     12060     12062     12063     12060     12062     12064     12060     12062     12065
     12061     12060     12062     12062     12065     12066     12062     12065     12067
     12062     12065     12068     12063     12062     12064     12063     12062     12065
     12064     12062     12065     12065     12068     12069     12065     12068     12070
     12065     12068     12071     12066     12065     12067     12066     12065     12068
     12067     12065     12068     12068     12071     12072     12068     12071     12073
     12068     12071     12074     12069     12068     12070     12069     12068     12071
     12070     12068     12071     12071     12074     12075     12071     12074     12076
     12071     12074     12077     12072     12071     12073     12072     12071     12074
     12073     12071     12074     12074     12077     12078     12074     12077     12079
     12074     12077     12080     12075     12074     12076     12075     12074     12077
     12076     12074     12077     12077     12080     12081     12077     12080     12082
     12077     12080     12083     12078     12077     12079     12078     12077     12080
     12079     12077     12080     12080     12083     12084     12080     12083     12085
     12081     12080     12082     12081     12080     12083     12082     12080     12083
     12083     12085     12086     12083     12085     12087     12084     12083     12085
     12085     12087     12088     12085     12087     12089     12085     12087     12090
     12086     12085     12087     12087     12090     12091     12087     12090     12092
     12087     12090     12093     12088     12087     12089     12088     12087     12090
     12089     12087     12090     12090     12093     12094     12090     12093     12095
     12090     12093     12096     12091     12090     12092     12091     12090     12093
     12092     12090     12093     12093     12096     12097     12093     12096     12098
     12093     12096     12099     12094     12093     12095     12094     12093     12096
     12095     12093     12096     12096     12099     12100     12096     12099     12101
     12096     12099     12102     12097     12096     12098     12097     12096     12099
     12098     12096     12099     12099     12102     12103     12099     12102     12104
     12099     12102     12105     12100     12099     12101     12100     12099     12102
     12101     12099     12102     12102     12105     12106     12102     12105     12107
     12102     12105     12108     12103     12102     12104     12103     12102     12105
     12104     12102     12105     12105     12108     12109     12105     12108     12110
     12105     12108     12111     12106     12105     12107     12106     12105     12108
     12107     12105     12108     12109     12108     12110     12109     12108     12111
     12110     12108     12111     12112     12114     12115     12112     12116     12117
     12112     12116     12118     12112     12116     12119     12112     12158     12155
     12112     12158     12159     12112     12158     12160     12113     12112     12114
     12113     12112     12116     12113     12112     12158     12114     12112     12116
     12114     12112     12158     12116     12112     12158     12116     12119     12120
     12116     12119     12150     12117     12116     12118     12117     12116     12119
     12118     12116     12119     12119     12120     12121     12119     12120     12122
     12119     12150     12148     12119     12150     12151     12119     12150     12155
     12120     12119     12150     12120     12122     12123     12120     12122     12124
     12120     12122     12125     12121     12120     12122     12122     12125     12126
     12122     12125     12127     12122     12125     12148     12123     12122     12124
     12123     12122     12125     12124     12122     12125     12125     12127     12128
     12125     12127     12129     12125     12127     12137     12125     12148     12145
     12125     12148     12149     12125     12148     12150     12126     12125     12127
     12126     12125     12148     12127     12125     12148     12127     12129     12130
     12127     12129     12131     12127     12129     12132     12127     12137     12135
     12127     12137     12138     12127     12137     12142     12128     12127     12129
     12128     12127     12137     12129     12127     12137     12129     12132     12133
     12129     12132     12134     12129     12132     12135     12130     12129     12131
     12130     12129     12132     12131     12129     12132     12132     12135     12136
     12132     12135     12137     12132     12135     12161     12133     12132     12134
     12133     12132     12135     12134     12132     12135     12135     12137     12138
     12135     12137     12142     12135     12161     12162     12135     12161     12163
     12135     12161     12167     12136     12135     12137     12136     12135     12161
     12137     12135     12161     12137     12138     12139     12137     12138     12140
     12137     12138     12141     12137     12142     12143     12137     12142     12144
     12137     12142     12145     12138     12137     12142     12139     12138     12140
     12139     12138     12141     12140     12138     12141     12142     12145     12146
     12142     12145     12147     12142     12145     12148     12143     12142     12144
     12143     12142     12145     12144     12142     12145     12145     12148     12149
     12145     12148     12150     12146     12145     12147     12146     12145     12148
     12147     12145     12148     12148     12150     12151     12148     12150     12155
     12149     12148     12150     12150     12151     12152     12150     12151     12153
     12150     12151     12154     12150     12155     12156     12150     12155     12157
     12150     12155     12158     12151     12150     12155     12152     12151     12153
     12152     12151     12154     12153     12151     12154     12155     12158     12159
     12155     12158     12160     12156     12155     12157     12156     12155     12158
     12157     12155     12158     12159     12158     12160     12161     12163     12164
     12161     12163     12165     12161     12163     12166     12161     12167     12168
     12161     12167     12169     12161     12167     12170     12162     12161     12163
     12162     12161     12167     12163     12161     12167     12164     12163     12165
     12164     12163     12166     12165     12163     12166     12167     12170     12171
     12167     12170     12172     12167     12170     12173     12168     12167     12169
     12168     12167     12170     12169     12167     12170     12170     12173     12174
     12170     12173     12175     12170     12173     12176     12171     12170     12172
     12171     12170     12173     12172     12170     12173     12173     12176     12177
     12173     12176     12178     12173     12176     12182     12174     12173     12175
     12174     12173     12176     12175     12173     12176     12176     12178     12179
     12176     12178     12180     12176     12178     12181     12176     12182     12183
     12176     12182     12184     12176     12182     12185     12177     12176     12178
     12177     12176     12182     12178     12176     12182     12179     12178     12180
     12179     12178     12181     12180     12178     12181     12183     12182     12184
     12183     12182     12185     12184     12182     12185     12186     12188     12189
     12186     12190     12191     12186     12190     12192     12186     12190     12193
     12186     12232     12229     12186     12232     12233     12186     12232     12234
     12187     12186     12188     12187     12186     12190     12187     12186     12232
     12188     12186     12190     12188     12186     12232     12190     12186     12232
     12190     12193     12194     12190     12193     12224     12191     12190     12192
     12191     12190     12193     12192     12190     12193     12193     12194     12195
     12193     12194     12196     12193     12224     12222     12193     12224     12225
     12193     12224     12229     12194     12193     12224     12194     12196     12197
     12194     12196     12198     12194     12196     12199     12195     12194     12196
     12196     12199     12200     12196     12199     12201     12196     12199     12222
     12197     12196     12198     12197     12196     12199     12198     12196     12199
     12199     12201     12202     12199     12201     12203     12199     12201     12211
     12199     12222     12219     12199     12222     12223     12199     12222     12224
     12200     12199     12201     12200     12199     12222     12201     12199     12222
     12201     12203     12204     12201     12203     12205     12201     12203     12206
     12201     12211     12209     12201     12211     12212     12201     12211     12216
     12202     12201     12203     12202     12201     12211     12203     12201     12211
     12203     12206     12207     12203     12206     12208     12203     12206     12209
     12204     12203     12205     12204     12203     12206     12205     12203     12206
     12206     12209     12210     12206     12209     12211     12206     12209     12235
     12207     12206     12208     12207     12206     12209     12208     12206     12209
     12209     12211     12212     12209     12211     12216     12209     12235     12236
     12209     12235     12237     12209     12235     12241     12210     12209     12211
     12210     12209     12235     12211     12209     12235     12211     12212     12213
     12211     12212     12214     12211     12212     12215     12211     12216     12217
     12211     12216     12218     12211     12216     12219     12212     12211     12216
     12213     12212     12214     12213     12212     12215     12214     12212     12215
     12216     12219     12220     12216     12219     12221     12216     12219     12222
     12217     12216     12218     12217     12216     12219     12218     12216     12219
     12219     12222     12223     12219     12222     12224     12220     12219     12221
     12220     12219     12222     12221     12219     12222     12222     12224     12225
     12222     12224     12229     12223     12222     12224     12224     12225     12226
     12224     12225     12227     12224     12225     12228     12224     12229     12230
     12224     12229     12231     12224     12229     12232     12225     12224     12229
     12226     12225     12227     12226     12225     12228     12227     12225     12228
     12229     12232     12233     12229     12232     12234     12230     12229     12231
     12230     12229     12232     12231     12229     12232     12233     12232     12234
     12235     12237     12238     12235     12237     12239     12235     12237     12240
     12235     12241     12242     12235     12241     12243     12235     12241     12244
     12236     12235     12237     12236     12235     12241     12237     12235     12241
     12238     12237     12239     12238     12237     12240     12239     12237     12240
     12241     12244     12245     12241     12244     12246     12241     12244     12247
     12242     12241     12243     12242     12241     12244     12243     12241     12244
     12244     12247     12248     12244     12247     12249     12244     12247     12250
     12245     12244     12246     12245     12244     12247     12246     12244     12247
     12247     12250     12251     12247     12250     12252     12247     12250     12256
     12248     12247     12249     12248     12247     12250     12249     12247     12250
     12250     12252     12253     12250     12252     12254     12250     12252     12255
     12250     12256     12257     12250     12256     12258     12250     12256     12259
     12251     12250     12252     12251     12250     12256     12252     12250     12256
     12253     12252     12254     12253     12252     12255     12254     12252     12255
     12257     12256     12258     12257     12256     12259     12258     12256     12259
     12260     12264     12265     12260     12264     12266     12260     12264     12269
     12261     12260     12262     12261     12260     12263     12261     12260     12264
     12262     12260     12263     12262     12260     12264     12263     12260     12264
     12264     12266     12267     12264     12266     12268     12264     12269     12270
     12264     12269     12271     12264     12269     12275     12265     12264     12266
     12265     12264     12269     12266     12264     12269     12267     12266     12268
     12269     12275     12272     12270     12269     12271     12270     12269     12275
     12271     12269     12275     12272     12276     12277     12273     12272     12274
     12273     12272     12275     12273     12272     12276     12274     12272     12275
     12274     12272     12276     12275     12272     12276     12276     12277     12278
     12276     12277     12279     12276     12277     12280     12277     12280     12281
     12277     12280     12282     12277     12280     12288     12278     12277     12279
     12278     12277     12280     12279     12277     12280     12280     12282     12283
     12280     12288     12289     12280     12288     12290     12280     12288     12291
     12281     12280     12282     12281     12280     12288     12282     12280     12288
     12282     12283     12284     12282     12283     12285     12283     12285     12286
     12283     12285     12287     12283     12285     12297     12284     12283     12285
     12285     12297     12298     12285     12297     12299     12285     12297     12300
     12286     12285     12287     12286     12285     12297     12287     12285     12297
     12288     12291     12292     12289     12288     12290     12289     12288     12291
     12290     12288     12291     12291     12292     12293     12291     12292     12294
     12292     12294     12295     12292     12294     12296     12292     12294     12344
     12293     12292     12294     12294     12344     12345     12294     12344     12346
     12294     12344     12347     12295     12294     12296     12295     12294     12344
     12296     12294     12344     12297     12300     12301     12297     12300     12302
     12297     12300     12303     12298     12297     12299     12298     12297     12300
     12299     12297     12300     12300     12303     12304     12300     12303     12305
     12301     12300     12302     12301     12300     12303     12302     12300     12303
     12303     12305     12306     12303     12305     12307     12304     12303     12305
     12305     12307     12308     12305     12307     12309     12305     12307     12310
     12306     12305     12307     12307     12310     12311     12307     12310     12312
     12308     12307     12309     12308     12307     12310     12309     12307     12310
     12310     12312     12313     12310     12312     12314     12311     12310     12312
     12312     12314     12315     12312     12314     12316     12312     12314     12317
     12313     12312     12314     12314     12317     12318     12314     12317     12319
     12315     12314     12316     12315     12314     12317     12316     12314     12317
     12317     12319     12320     12317     12319     12321     12318     12317     12319
     12319     12321     12322     12319     12321     12323     12319     12321     12324
     12320     12319     12321     12321     12324     12325     12321     12324     12326
     12322     12321     12323     12322     12321     12324     12323     12321     12324
     12324     12326     12327     12324     12326     12328     12325     12324     12326
     12326     12328     12329     12326     12328     12330     12326     12328     12331
     12327     12326     12328     12328     12331     12332     12328     12331     12333
     12328     12331     12334     12329     12328     12330     12329     12328     12331
     12330     12328     12331     12331     12334     12335     12331     12334     12336
     12331     12334     12337     12332     12331     12333     12332     12331     12334
     12333     12331     12334     12334     12337     12338     12334     12337     12339
     12334     12337     12340     12335     12334     12336     12335     12334     12337
     12336     12334     12337     12337     12340     12341     12337     12340     12342
     12337     12340     12343     12338     12337     12339     12338     12337     12340
     12339     12337     12340     12341     12340     12342     12341     12340     12343
     12342     12340     12343     12344     12347     12348     12344     12347     12349
     12344     12347     12350     12345     12344     12346     12345     12344     12347
     12346     12344     12347     12347     12350     12351     12347     12350     12352
     12347     12350     12353     12348     12347     12349     12348     12347     12350
     12349     12347     12350     12350     12353     12354     12350     12353     12355
     12350     12353     12356     12351     12350     12352     12351     12350     12353
     12352     12350     12353     12353     12356     12357     12353     12356     12358
     12353     12356     12359     12354     12353     12355     12354     12353     12356
     12355     12353     12356     12356     12359     12360     12356     12359     12361
     12356     12359     12362     12357     12356     12358     12357     12356     12359
     12358     12356     12359     12359     12362     12363     12359     12362     12364
     12359     12362     12365     12360     12359     12361     12360     12359     12362
     12361     12359     12362     12362     12365     12366     12362     12365     12367
     12362     12365     12368     12363     12362     12364     12363     12362     12365
     12364     12362     12365     12365     12368     12369     12365     12368     12370
     12365     12368     12371     12366     12365     12367     12366     12365     12368
     12367     12365     12368     12368     12371     12372     12368     12371     12373
     12368     12371     12374     12369     12368     12370     12369     12368     12371
     12370     12368     12371     12371     12374     12375     12371     12374     12376
     12371     12374     12377     12372     12371     12373     12372     12371     12374
     12373     12371     12374     12374     12377     12378     12374     12377     12379
     12374     12377     12380     12375     12374     12376     12375     12374     12377
     12376     12374     12377     12377     12380     12381     12377     12380     12382
     12377     12380     12383     12378     12377     12379     12378     12377     12380
     12379     12377     12380     12380     12383     12384     12380     12383     12385
     12380     12383     12386     12381     12380     12382     12381     12380     12383
     12382     12380     12383     12383     12386     12387     12383     12386     12388
     12383     12386     12389     12384     12383     12385     12384     12383     12386
     12385     12383     12386     12386     12389     12390     12386     12389     12391
     12386     12389     12392     12387     12386     12388     12387     12386     12389
     12388     12386     12389     12390     12389     12391     12390     12389     12392
     12391     12389     12392     12393     12394     12395     12393     12394     12396
     12393     12394     12409     12393     12397     12398     12393     12397     12399
     12393     12397     12400     12393     12401     12402     12393     12401     12403
     12393     12401     12404     12393     12405     12406     12393     12405     12407
     12393     12405     12408     12394     12393     12397     12394     12393     12401
     12394     12393     12405     12394     12409     12410     12394     12409     12411
     12394     12409     12415     12395     12394     12396     12395     12394     12409
     12396     12394     12409     12397     12393     12401     12397     12393     12405
     12398     12397     12399     12398     12397     12400     12399     12397     12400
     12401     12393     12405     12402     12401     12403     12402     12401     12404
     12403     12401     12404     12406     12405     12407     12406     12405     12408
     12407     12405     12408     12409     12415     12412     12410     12409     12411
     12410     12409     12415     12411     12409     12415     12412     12416     12417
     12413     12412     12414     12413     12412     12415     12413     12412     12416
     12414     12412     12415     12414     12412     12416     12415     12412     12416
     12416     12417     12418     12416     12417     12419     12416     12417     12420
     12417     12420     12421     12417     12420     12422     12417     12420     12428
     12418     12417     12419     12418     12417     12420     12419     12417     12420
     12420     12422     12423     12420     12428     12429     12420     12428     12430
     12420     12428     12431     12421     12420     12422     12421     12420     12428
     12422     12420     12428     12422     12423     12424     12422     12423     12425
     12423     12425     12426     12423     12425     12427     12423     12425     12437
     12424     12423     12425     12425     12437     12438     12425     12437     12439
     12425     12437     12440     12426     12425     12427     12426     12425     12437
     12427     12425     12437     12428     12431     12432     12429     12428     12430
     12429     12428     12431     12430     12428     12431     12431     12432     12433
     12431     12432     12434     12432     12434     12435     12432     12434     12436
     12432     12434     12484     12433     12432     12434     12434     12484     12485
     12434     12484     12486     12434     12484     12487     12435     12434     12436
     12435     12434     12484     12436     12434     12484     12437     12440     12441
     12437     12440     12442     12437     12440     12443     12438     12437     12439
     12438     12437     12440     12439     12437     12440     12440     12443     12444
     12440     12443     12445     12440     12443     12446     12441     12440     12442
     12441     12440     12443     12442     12440     12443     12443     12446     12447
     12443     12446     12448     12443     12446     12449     12444     12443     12445
     12444     12443     12446     12445     12443     12446     12446     12449     12450
     12446     12449     12451     12446     12449     12452     12447     12446     12448
     12447     12446     12449     12448     12446     12449     12449     12452     12453
     12449     12452     12454     12449     12452     12455     12450     12449     12451
     12450     12449     12452     12451     12449     12452     12452     12455     12456
     12452     12455     12457     12453     12452     12454     12453     12452     12455
     12454     12452     12455     12455     12457     12458     12455     12457     12459
     12456     12455     12457     12457     12459     12460     12457     12459     12461
     12457     12459     12462     12458     12457     12459     12459     12462     12463
     12459     12462     12464     12459     12462     12465     12460     12459     12461
     12460     12459     12462     12461     12459     12462     12462     12465     12466
     12462     12465     12467     12462     12465     12468     12463     12462     12464
     12463     12462     12465     12464     12462     12465     12465     12468     12469
     12465     12468     12470     12465     12468     12471     12466     12465     12467
     12466     12465     12468     12467     12465     12468     12468     12471     12472
     12468     12471     12473     12468     12471     12474     12469     12468     12470
     12469     12468     12471     12470     12468     12471     12471     12474     12475
     12471     12474     12476     12471     12474     12477     12472     12471     12473
     12472     12471     12474     12473     12471     12474     12474     12477     12478
     12474     12477     12479     12474     12477     12480     12475     12474     12476
     12475     12474     12477     12476     12474     12477     12477     12480     12481
     12477     12480     12482     12477     12480     12483     12478     12477     12479
     12478     12477     12480     12479     12477     12480     12481     12480     12482
     12481     12480     12483     12482     12480     12483     12484     12487     12488
     12484     12487     12489     12484     12487     12490     12485     12484     12486
     12485     12484     12487     12486     12484     12487     12487     12490     12491
     12487     12490     12492     12487     12490     12493     12488     12487     12489
     12488     12487     12490     12489     12487     12490     12490     12493     12494
     12490     12493     12495     12490     12493     12496     12491     12490     12492
     12491     12490     12493     12492     12490     12493     12493     12496     12497
     12493     12496     12498     12493     12496     12499     12494     12493     12495
     12494     12493     12496     12495     12493     12496     12496     12499     12500
     12496     12499     12501     12496     12499     12502     12497     12496     12498
     12497     12496     12499     12498     12496     12499     12499     12502     12503
     12499     12502     12504     12499     12502     12505     12500     12499     12501
     12500     12499     12502     12501     12499     12502     12502     12505     12506
     12502     12505     12507     12502     12505     12508     12503     12502     12504
     12503     12502     12505     12504     12502     12505     12505     12508     12509
     12505     12508     12510     12505     12508     12511     12506     12505     12507
     12506     12505     12508     12507     12505     12508     12508     12511     12512
     12508     12511     12513     12508     12511     12514     12509     12508     12510
     12509     12508     12511     12510     12508     12511     12511     12514     12515
     12511     12514     12516     12511     12514     12517     12512     12511     12513
     12512     12511     12514     12513     12511     12514     12514     12517     12518
     12514     12517     12519     12514     12517     12520     12515     12514     12516
     12515     12514     12517     12516     12514     12517     12517     12520     12521
     12517     12520     12522     12517     12520     12523     12518     12517     12519
     12518     12517     12520     12519     12517     12520     12520     12523     12524
     12520     12523     12525     12520     12523     12526     12521     12520     12522
     12521     12520     12523     12522     12520     12523     12524     12523     12525
     12524     12523     12526     12525     12523     12526     12527     12529     12530
     12527     12531     12532     12527     12531     12533     12527     12531     12534
     12527     12573     12570     12527     12573     12574     12527     12573     12575
     12528     12527     12529     12528     12527     12531     12528     12527     12573
     12529     12527     12531     12529     12527     12573     12531     12527     12573
     12531     12534     12535     12531     12534     12565     12532     12531     12533
     12532     12531     12534     12533     12531     12534     12534     12535     12536
     12534     12535     12537     12534     12565     12563     12534     12565     12566
     12534     12565     12570     12535     12534     12565     12535     12537     12538
     12535     12537     12539     12535     12537     12540     12536     12535     12537
     12537     12540     12541     12537     12540     12542     12537     12540     12563
     12538     12537     12539     12538     12537     12540     12539     12537     12540
     12540     12542     12543     12540     12542     12544     12540     12542     12552
     12540     12563     12560     12540     12563     12564     12540     12563     12565
     12541     12540     12542     12541     12540     12563     12542     12540     12563
     12542     12544     12545     12542     12544     12546     12542     12544     12547
     12542     12552     12550     12542     12552     12553     12542     12552     12557
     12543     12542     12544     12543     12542     12552     12544     12542     12552
     12544     12547     12548     12544     12547     12549     12544     12547     12550
     12545     12544     12546     12545     12544     12547     12546     12544     12547
     12547     12550     12551     12547     12550     12552     12547     12550     12576
     12548     12547     12549     12548     12547     12550     12549     12547     12550
     12550     12552     12553     12550     12552     12557     12550     12576     12577
     12550     12576     12578     12550     12576     12582     12551     12550     12552
     12551     12550     12576     12552     12550     12576     12552     12553     12554
     12552     12553     12555     12552     12553     12556     12552     12557     12558
     12552     12557     12559     12552     12557     12560     12553     12552     12557
     12554     12553     12555     12554     12553     12556     12555     12553     12556
     12557     12560     12561     12557     12560     12562     12557     12560     12563
     12558     12557     12559     12558     12557     12560     12559     12557     12560
     12560     12563     12564     12560     12563     12565     12561     12560     12562
     12561     12560     12563     12562     12560     12563     12563     12565     12566
     12563     12565     12570     12564     12563     12565     12565     12566     12567
     12565     12566     12568     12565     12566     12569     12565     12570     12571
     12565     12570     12572     12565     12570     12573     12566     12565     12570
     12567     12566     12568     12567     12566     12569     12568     12566     12569
     12570     12573     12574     12570     12573     12575     12571     12570     12572
     12571     12570     12573     12572     12570     12573     12574     12573     12575
     12576     12578     12579     12576     12578     12580     12576     12578     12581
     12576     12582     12583     12576     12582     12584     12576     12582     12585
     12577     12576     12578     12577     12576     12582     12578     12576     12582
     12579     12578     12580     12579     12578     12581     12580     12578     12581
     12582     12585     12586     12582     12585     12587     12582     12585     12588
     12583     12582     12584     12583     12582     12585     12584     12582     12585
     12585     12588     12589     12585     12588     12590     12585     12588     12591
     12586     12585     12587     12586     12585     12588     12587     12585     12588
     12588     12591     12592     12588     12591     12593     12588     12591     12597
     12589     12588     12590     12589     12588     12591     12590     12588     12591
     12591     12593     12594     12591     12593     12595     12591     12593     12596
     12591     12597     12598     12591     12597     12599     12591     12597     12600
     12592     12591     12593     12592     12591     12597     12593     12591     12597
     12594     12593     12595     12594     12593     12596     12595     12593     12596
     12598     12597     12599     12598     12597     12600     12599     12597     12600
     12601     12605     12606     12601     12605     12607     12601     12605     12608
     12602     12601     12603     12602     12601     12604     12602     12601     12605
     12603     12601     12604     12603     12601     12605     12604     12601     12605
     12605     12608     12609     12605     12608     12610     12605     12608     12614
     12606     12605     12607     12606     12605     12608     12607     12605     12608
     12608     12614     12611     12609     12608     12610     12609     12608     12614
     12610     12608     12614     12611     12615     12616     12612     12611     12613
     12612     12611     12614     12612     12611     12615     12613     12611     12614
     12613     12611     12615     12614     12611     12615     12615     12616     12617
     12615     12616     12618     12615     12616     12619     12616     12619     12620
     12616     12619     12621     12616     12619     12627     12617     12616     12618
     12617     12616     12619     12618     12616     12619     12619     12621     12622
     12619     12627     12628     12619     12627     12629     12619     12627     12630
     12620     12619     12621     12620     12619     12627     12621     12619     12627
     12621     12622     12623     12621     12622     12624     12622     12624     12625
     12622     12624     12626     12622     12624     12636     12623     12622     12624
     12624     12636     12637     12624     12636     12638     12624     12636     12639
     12625     12624     12626     12625     12624     12636     12626     12624     12636
     12627     12630     12631     12628     12627     12629     12628     12627     12630
     12629     12627     12630     12630     12631     12632     12630     12631     12633
     12631     12633     12634     12631     12633     12635     12631     12633     12683
     12632     12631     12633     12633     12683     12684     12633     12683     12685
     12633     12683     12686     12634     12633     12635     12634     12633     12683
     12635     12633     12683     12636     12639     12640     12636     12639     12641
     12636     12639     12642     12637     12636     12638     12637     12636     12639
     12638     12636     12639     12639     12642     12643     12639     12642     12644
     12640     12639     12641     12640     12639     12642     12641     12639     12642
     12642     12644     12645     12642     12644     12646     12643     12642     12644
     12644     12646     12647     12644     12646     12648     12644     12646     12649
     12645     12644     12646     12646     12649     12650     12646     12649     12651
     12647     12646     12648     12647     12646     12649     12648     12646     12649
     12649     12651     12652     12649     12651     12653     12650     12649     12651
     12651     12653     12654     12651     12653     12655     12651     12653     12656
     12652     12651     12653     12653     12656     12657     12653     12656     12658
     12654     12653     12655     12654     12653     12656     12655     12653     12656
     12656     12658     12659     12656     12658     12660     12657     12656     12658
     12658     12660     12661     12658     12660     12662     12658     12660     12663
     12659     12658     12660     12660     12663     12664     12660     12663     12665
     12661     12660     12662     12661     12660     12663     12662     12660     12663
     12663     12665     12666     12663     12665     12667     12664     12663     12665
     12665     12667     12668     12665     12667     12669     12665     12667     12670
     12666     12665     12667     12667     12670     12671     12667     12670     12672
     12667     12670     12673     12668     12667     12669     12668     12667     12670
     12669     12667     12670     12670     12673     12674     12670     12673     12675
     12670     12673     12676     12671     12670     12672     12671     12670     12673
     12672     12670     12673     12673     12676     12677     12673     12676     12678
     12673     12676     12679     12674     12673     12675     12674     12673     12676
     12675     12673     12676     12676     12679     12680     12676     12679     12681
     12676     12679     12682     12677     12676     12678     12677     12676     12679
     12678     12676     12679     12680     12679     12681     12680     12679     12682
     12681     12679     12682     12683     12686     12687     12683     12686     12688
     12683     12686     12689     12684     12683     12685     12684     12683     12686
     12685     12683     12686     12686     12689     12690     12686     12689     12691
     12686     12689     12692     12687     12686     12688     12687     12686     12689
     12688     12686     12689     12689     12692     12693     12689     12692     12694
     12689     12692     12695     12690     12689     12691     12690     12689     12692
     12691     12689     12692     12692     12695     12696     12692     12695     12697
     12692     12695     12698     12693     12692     12694     12693     12692     12695
     12694     12692     12695     12695     12698     12699     12695     12698     12700
     12695     12698     12701     12696     12695     12697     12696     12695     12698
     12697     12695     12698     12698     12701     12702     12698     12701     12703
     12698     12701     12704     12699     12698     12700     12699     12698     12701
     12700     12698     12701     12701     12704     12705     12701     12704     12706
     12701     12704     12707     12702     12701     12703     12702     12701     12704
     12703     12701     12704     12704     12707     12708     12704     12707     12709
     12704     12707     12710     12705     12704     12706     12705     12704     12707
     12706     12704     12707     12707     12710     12711     12707     12710     12712
     12707     12710     12713     12708     12707     12709     12708     12707     12710
     12709     12707     12710     12710     12713     12714     12710     12713     12715
     12710     12713     12716     12711     12710     12712     12711     12710     12713
     12712     12710     12713     12713     12716     12717     12713     12716     12718
     12713     12716     12719     12714     12713     12715     12714     12713     12716
     12715     12713     12716     12716     12719     12720     12716     12719     12721
     12716     12719     12722     12717     12716     12718     12717     12716     12719
     12718     12716     12719     12719     12722     12723     12719     12722     12724
     12719     12722     12725     12720     12719     12721     12720     12719     12722
     12721     12719     12722     12722     12725     12726     12722     12725     12727
     12722     12725     12728     12723     12722     12724     12723     12722     12725
     12724     12722     12725     12725     12728     12729     12725     12728     12730
     12725     12728     12731     12726     12725     12727     12726     12725     12728
     12727     12725     12728     12729     12728     12730     12729     12728     12731
     12730     12728     12731     12732     12733     12734     12732     12733     12735
     12732     12733     12736     12732     12737     12738     12732     12737     12739
     12732     12737     12740     12732     12741     12742     12732     12741     12743
     12732     12741     12744     12732     12745     12746     12732     12745     12747
     12732     12745     12748     12733     12732     12737     12733     12732     12741
     12733     12732     12745     12734     12733     12735     12734     12733     12736
     12735     12733     12736     12737     12732     12741     12737     12732     12745
     12738     12737     12739     12738     12737     12740     12739     12737     12740
     12741     12732     12745     12742     12741     12743     12742     12741     12744
     12743     12741     12744     12745     12748     12749     12745     12748     12750
     12745     12748     12754     12746     12745     12747     12746     12745     12748
     12747     12745     12748     12748     12754     12751     12749     12748     12750
     12749     12748     12754     12750     12748     12754     12751     12755     12756
     12752     12751     12753     12752     12751     12754     12752     12751     12755
     12753     12751     12754     12753     12751     12755     12754     12751     12755
     12755     12756     12757     12755     12756     12758     12755     12756     12759
     12756     12759     12760     12756     12759     12761     12756     12759     12767
     12757     12756     12758     12757     12756     12759     12758     12756     12759
     12759     12761     12762     12759     12767     12768     12759     12767     12769
     12759     12767     12770     12760     12759     12761     12760     12759     12767
     12761     12759     12767     12761     12762     12763     12761     12762     12764
     12762     12764     12765     12762     12764     12766     12762     12764     12776
     12763     12762     12764     12764     12776     12777     12764     12776     12778
     12764     12776     12779     12765     12764     12766     12765     12764     12776
     12766     12764     12776     12767     12770     12771     12768     12767     12769
     12768     12767     12770     12769     12767     12770     12770     12771     12772
     12770     12771     12773     12771     12773     12774     12771     12773     12775
     12771     12773     12821     12772     12771     12773     12773     12821     12822
     12773     12821     12823     12773     12821     12824     12774     12773     12775
     12774     12773     12821     12775     12773     12821     12776     12779     12780
     12776     12779     12781     12776     12779     12782     12777     12776     12778
     12777     12776     12779     12778     12776     12779     12779     12782     12783
     12779     12782     12784     12779     12782     12785     12780     12779     12781
     12780     12779     12782     12781     12779     12782     12782     12785     12786
     12782     12785     12787     12782     12785     12788     12783     12782     12784
     12783     12782     12785     12784     12782     12785     12785     12788     12789
     12785     12788     12790     12785     12788     12791     12786     12785     12787
     12786     12785     12788     12787     12785     12788     12788     12791     12792
     12788     12791     12793     12788     12791     12794     12789     12788     12790
     12789     12788     12791     12790     12788     12791     12791     12794     12795
     12791     12794     12796     12792     12791     12793     12792     12791     12794
     12793     12791     12794     12794     12796     12797     12794     12796     12798
     12795     12794     12796     12796     12798     12799     12796     12798     12800
     12796     12798     12801     12797     12796     12798     12798     12801     12802
     12798     12801     12803     12799     12798     12800     12799     12798     12801
     12800     12798     12801     12801     12803     12804     12801     12803     12805
     12802     12801     12803     12803     12805     12806     12803     12805     12807
     12803     12805     12808     12804     12803     12805     12805     12808     12809
     12805     12808     12810     12805     12808     12811     12806     12805     12807
     12806     12805     12808     12807     12805     12808     12808     12811     12812
     12808     12811     12813     12808     12811     12814     12809     12808     12810
     12809     12808     12811     12810     12808     12811     12811     12814     12815
     12811     12814     12816     12811     12814     12817     12812     12811     12813
     12812     12811     12814     12813     12811     12814     12814     12817     12818
     12814     12817     12819     12814     12817     12820     12815     12814     12816
     12815     12814     12817     12816     12814     12817     12818     12817     12819
     12818     12817     12820     12819     12817     12820     12821     12824     12825
     12821     12824     12826     12821     12824     12827     12822     12821     12823
     12822     12821     12824     12823     12821     12824     12824     12827     12828
     12824     12827     12829     12824     12827     12830     12825     12824     12826
     12825     12824     12827     12826     12824     12827     12827     12830     12831
     12827     12830     12832     12827     12830     12833     12828     12827     12829
     12828     12827     12830     12829     12827     12830     12830     12833     12834
     12830     12833     12835     12830     12833     12836     12831     12830     12832
     12831     12830     12833     12832     12830     12833     12833     12836     12837
     12833     12836     12838     12833     12836     12839     12834     12833     12835
     12834     12833     12836     12835     12833     12836     12836     12839     12840
     12836     12839     12841     12836     12839     12842     12837     12836     12838
     12837     12836     12839     12838     12836     12839     12839     12842     12843
     12839     12842     12844     12839     12842     12845     12840     12839     12841
     12840     12839     12842     12841     12839     12842     12842     12845     12846
     12842     12845     12847     12842     12845     12848     12843     12842     12844
     12843     12842     12845     12844     12842     12845     12845     12848     12849
     12845     12848     12850     12845     12848     12851     12846     12845     12847
     12846     12845     12848     12847     12845     12848     12848     12851     12852
     12848     12851     12853     12848     12851     12854     12849     12848     12850
     12849     12848     12851     12850     12848     12851     12851     12854     12855
     12851     12854     12856     12851     12854     12857     12852     12851     12853
     12852     12851     12854     12853     12851     12854     12854     12857     12858
     12854     12857     12859     12854     12857     12860     12855     12854     12856
     12855     12854     12857     12856     12854     12857     12857     12860     12861
     12857     12860     12862     12857     12860     12863     12858     12857     12859
     12858     12857     12860     12859     12857     12860     12860     12863     12864
     12860     12863     12865     12860     12863     12866     12861     12860     12862
     12861     12860     12863     12862     12860     12863     12863     12866     12867
     12863     12866     12868     12863     12866     12869     12864     12863     12865
     12864     12863     12866     12865     12863     12866     12867     12866     12868
     12867     12866     12869     12868     12866     12869     12870     12872     12873
     12870     12874     12875     12870     12874     12876     12870     12874     12877
     12870     12916     12913     12870     12916     12917     12870     12916     12918
     12871     12870     12872     12871     12870     12874     12871     12870     12916
     12872     12870     12874     12872     12870     12916     12874     12870     12916
     12874     12877     12878     12874     12877     12908     12875     12874     12876
     12875     12874     12877     12876     12874     12877     12877     12878     12879
     12877     12878     12880     12877     12908     12906     12877     12908     12909
     12877     12908     12913     12878     12877     12908     12878     12880     12881
     12878     12880     12882     12878     12880     12883     12879     12878     12880
     12880     12883     12884     12880     12883     12885     12880     12883     12906
     12881     12880     12882     12881     12880     12883     12882     12880     12883
     12883     12885     12886     12883     12885     12887     12883     12885     12895
     12883     12906     12903     12883     12906     12907     12883     12906     12908
     12884     12883     12885     12884     12883     12906     12885     12883     12906
     12885     12887     12888     12885     12887     12889     12885     12887     12890
     12885     12895     12893     12885     12895     12896     12885     12895     12900
     12886     12885     12887     12886     12885     12895     12887     12885     12895
     12887     12890     12891     12887     12890     12892     12887     12890     12893
     12888     12887     12889     12888     12887     12890     12889     12887     12890
     12890     12893     12894     12890     12893     12895     12890     12893     12919
     12891     12890     12892     12891     12890     12893     12892     12890     12893
     12893     12895     12896     12893     12895     12900     12893     12919     12920
     12893     12919     12921     12893     12919     12925     12894     12893     12895
     12894     12893     12919     12895     12893     12919     12895     12896     12897
     12895     12896     12898     12895     12896     12899     12895     12900     12901
     12895     12900     12902     12895     12900     12903     12896     12895     12900
     12897     12896     12898     12897     12896     12899     12898     12896     12899
     12900     12903     12904     12900     12903     12905     12900     12903     12906
     12901     12900     12902     12901     12900     12903     12902     12900     12903
     12903     12906     12907     12903     12906     12908     12904     12903     12905
     12904     12903     12906     12905     12903     12906     12906     12908     12909
     12906     12908     12913     12907     12906     12908     12908     12909     12910
     12908     12909     12911     12908     12909     12912     12908     12913     12914
     12908     12913     12915     12908     12913     12916     12909     12908     12913
     12910     12909     12911     12910     12909     12912     12911     12909     12912
     12913     12916     12917     12913     12916     12918     12914     12913     12915
     12914     12913     12916     12915     12913     12916     12917     12916     12918
     12919     12921     12922     12919     12921     12923     12919     12921     12924
     12919     12925     12926     12919     12925     12927     12919     12925     12928
     12920     12919     12921     12920     12919     12925     12921     12919     12925
     12922     12921     12923     12922     12921     12924     12923     12921     12924
     12925     12928     12929     12925     12928     12930     12925     12928     12931
     12926     12925     12927     12926     12925     12928     12927     12925     12928
     12928     12931     12932     12928     12931     12933     12928     12931     12934
     12929     12928     12930     12929     12928     12931     12930     12928     12931
     12931     12934     12935     12931     12934     12936     12931     12934     12940
     12932     12931     12933     12932     12931     12934     12933     12931     12934
     12934     12936     12937     12934     12936     12938     12934     12936     12939
     12934     12940     12941     12934     12940     12942     12934     12940     12943
     12935     12934     12936     12935     12934     12940     12936     12934     12940
     12937     12936     12938     12937     12936     12939     12938     12936     12939
     12941     12940     12942     12941     12940     12943     12942     12940     12943
     12944     12948     12949     12944     12948     12950     12944     12948     12951
     12945     12944     12946     12945     12944     12947     12945     12944     12948
     12946     12944     12947     12946     12944     12948     12947     12944     12948
     12948     12951     12952     12948     12951     12953     12948     12951     12957
     12949     12948     12950     12949     12948     12951     12950     12948     12951
     12951     12957     12954     12952     12951     12953     12952     12951     12957
     12953     12951     12957     12954     12958     12959     12955     12954     12956
     12955     12954     12957     12955     12954     12958     12956     12954     12957
     12956     12954     12958     12957     12954     12958     12958     12959     12960
     12958     12959     12961     12958     12959     12962     12959     12962     12963
     12959     12962     12964     12959     12962     12970     12960     12959     12961
     12960     12959     12962     12961     12959     12962     12962     12964     12965
     12962     12970     12971     12962     12970     12972     12962     12970     12973
     12963     12962     12964     12963     12962     12970     12964     12962     12970
     12964     12965     12966     12964     12965     12967     12965     12967     12968
     12965     12967     12969     12965     12967     12979     12966     12965     12967
     12967     12979     12980     12967     12979     12981     12967     12979     12982
     12968     12967     12969     12968     12967     12979     12969     12967     12979
     12970     12973     12974     12971     12970     12972     12971     12970     12973
     12972     12970     12973     12973     12974     12975     12973     12974     12976
     12974     12976     12977     12974     12976     12978     12974     12976     13026
     12975     12974     12976     12976     13026     13027     12976     13026     13028
     12976     13026     13029     12977     12976     12978     12977     12976     13026
     12978     12976     13026     12979     12982     12983     12979     12982     12984
     12979     12982     12985     12980     12979     12981     12980     12979     12982
     12981     12979     12982     12982     12985     12986     12982     12985     12987
     12983     12982     12984     12983     12982     12985     12984     12982     12985
     12985     12987     12988     12985     12987     12989     12986     12985     12987
     12987     12989     12990     12987     12989     12991     12987     12989     12992
     12988     12987     12989     12989     12992     12993     12989     12992     12994
     12990     12989     12991     12990     12989     12992     12991     12989     12992
     12992     12994     12995     12992     12994     12996     12993     12992     12994
     12994     12996     12997     12994     12996     12998     12994     12996     12999
     12995     12994     12996     12996     12999     13000     12996     12999     13001
     12997     12996     12998     12997     12996     12999     12998     12996     12999
     12999     13001     13002     12999     13001     13003     13000     12999     13001
     13001     13003     13004     13001     13003     13005     13001     13003     13006
     13002     13001     13003     13003     13006     13007     13003     13006     13008
     13004     13003     13005     13004     13003     13006     13005     13003     13006
     13006     13008     13009     13006     13008     13010     13007     13006     13008
     13008     13010     13011     13008     13010     13012     13008     13010     13013
     13009     13008     13010     13010     13013     13014     13010     13013     13015
     13010     13013     13016     13011     13010     13012     13011     13010     13013
     13012     13010     13013     13013     13016     13017     13013     13016     13018
     13013     13016     13019     13014     13013     13015     13014     13013     13016
     13015     13013     13016     13016     13019     13020     13016     13019     13021
     13016     13019     13022     13017     13016     13018     13017     13016     13019
     13018     13016     13019     13019     13022     13023     13019     13022     13024
     13019     13022     13025     13020     13019     13021     13020     13019     13022
     13021     13019     13022     13023     13022     13024     13023     13022     13025
     13024     13022     13025     13026     13029     13030     13026     13029     13031
     13026     13029     13032     13027     13026     13028     13027     13026     13029
     13028     13026     13029     13029     13032     13033     13029     13032     13034
     13029     13032     13035     13030     13029     13031     13030     13029     13032
     13031     13029     13032     13032     13035     13036     13032     13035     13037
     13032     13035     13038     13033     13032     13034     13033     13032     13035
     13034     13032     13035     13035     13038     13039     13035     13038     13040
     13035     13038     13041     13036     13035     13037     13036     13035     13038
     13037     13035     13038     13038     13041     13042     13038     13041     13043
     13038     13041     13044     13039     13038     13040     13039     13038     13041
     13040     13038     13041     13041     13044     13045     13041     13044     13046
     13041     13044     13047     13042     13041     13043     13042     13041     13044
     13043     13041     13044     13044     13047     13048     13044     13047     13049
     13044     13047     13050     13045     13044     13046     13045     13044     13047
     13046     13044     13047     13047     13050     13051     13047     13050     13052
     13047     13050     13053     13048     13047     13049     13048     13047     13050
     13049     13047     13050     13050     13053     13054     13050     13053     13055
     13050     13053     13056     13051     13050     13052     13051     13050     13053
     13052     13050     13053     13053     13056     13057     13053     13056     13058
     13053     13056     13059     13054     13053     13055     13054     13053     13056
     13055     13053     13056     13056     13059     13060     13056     13059     13061
     13056     13059     13062     13057     13056     13058     13057     13056     13059
     13058     13056     13059     13059     13062     13063     13059     13062     13064
     13059     13062     13065     13060     13059     13061     13060     13059     13062
     13061     13059     13062     13062     13065     13066     13062     13065     13067
     13062     13065     13068     13063     13062     13064     13063     13062     13065
     13064     13062     13065     13065     13068     13069     13065     13068     13070
     13065     13068     13071     13066     13065     13067     13066     13065     13068
     13067     13065     13068     13068     13071     13072     13068     13071     13073
     13068     13071     13074     13069     13068     13070     13069     13068     13071
     13070     13068     13071     13072     13071     13073     13072     13071     13074
     13073     13071     13074     13075     13076     13077     13075     13076     13078
     13075     13076     13079     13075     13080     13081     13075     13080     13082
     13075     13080     13083     13075     13084     13085     13075     13084     13086
     13075     13084     13087     13075     13088     13089     13075     13088     13090
     13075     13088     13091     13076     13075     13080     13076     13075     13084
     13076     13075     13088     13077     13076     13078     13077     13076     13079
     13078     13076     13079     13080     13075     13084     13080     13075     13088
     13081     13080     13082     13081     13080     13083     13082     13080     13083
     13084     13075     13088     13085     13084     13086     13085     13084     13087
     13086     13084     13087     13088     13091     13092     13088     13091     13093
     13088     13091     13098     13089     13088     13090     13089     13088     13091
     13090     13088     13091     13091     13098     13094     13092     13091     13093
     13092     13091     13098     13093     13091     13098     13094     13097     13099
     13095     13094     13096     13095     13094     13097     13095     13094     13098
     13096     13094     13097     13096     13094     13098     13097     13094     13098
     13097     13099     13100     13097     13099     13101     13097     13099     13104
     13099     13104     13102     13099     13104     13105     13099     13104     13106
     13100     13099     13101     13100     13099     13104     13101     13099     13104
     13102     13104     13105     13102     13104     13106     13102     13154     13155
     13102     13154     13156     13103     13102     13104     13103     13102     13154
     13104     13102     13154     13104     13106     13107     13104     13106     13108
     13104     13106     13110     13105     13104     13106     13106     13108     13109
     13106     13110     13111     13106     13110     13112     13107     13106     13108
     13107     13106     13110     13108     13106     13110     13110     13112     13113
     13110     13112     13114     13111     13110     13112     13112     13114     13115
     13112     13114     13116     13112     13114     13117     13113     13112     13114
     13114     13117     13118     13114     13117     13119     13114     13117     13120
     13115     13114     13116     13115     13114     13117     13116     13114     13117
     13117     13120     13121     13117     13120     13122     13117     13120     13123
     13118     13117     13119     13118     13117     13120     13119     13117     13120
     13120     13123     13124     13120     13123     13125     13120     13123     13126
     13121     13120     13122     13121     13120     13123     13122     13120     13123
     13123     13126     13127     13123     13126     13128     13123     13126     13129
     13124     13123     13125     13124     13123     13126     13125     13123     13126
     13126     13129     13130     13126     13129     13131     13126     13129     13132
     13127     13126     13128     13127     13126     13129     13128     13126     13129
     13129     13132     13133     13129     13132     13134     13129     13132     13135
     13130     13129     13131     13130     13129     13132     13131     13129     13132
     13132     13135     13136     13132     13135     13137     13132     13135     13138
     13133     13132     13134     13133     13132     13135     13134     13132     13135
     13135     13138     13139     13135     13138     13140     13135     13138     13141
     13136     13135     13137     13136     13135     13138     13137     13135     13138
     13138     13141     13142     13138     13141     13143     13138     13141     13144
     13139     13138     13140     13139     13138     13141     13140     13138     13141
     13141     13144     13145     13141     13144     13146     13141     13144     13147
     13142     13141     13143     13142     13141     13144     13143     13141     13144
     13144     13147     13148     13144     13147     13149     13144     13147     13150
     13145     13144     13146     13145     13144     13147     13146     13144     13147
     13147     13150     13151     13147     13150     13152     13147     13150     13153
     13148     13147     13149     13148     13147     13150     13149     13147     13150
     13151     13150     13152     13151     13150     13153     13152     13150     13153
     13154     13156     13157     13154     13156     13158     13154     13156     13159
     13155     13154     13156     13156     13159     13160     13156     13159     13161
     13156     13159     13162     13157     13156     13158     13157     13156     13159
     13158     13156     13159     13159     13162     13163     13159     13162     13164
     13159     13162     13165     13160     13159     13161     13160     13159     13162
     13161     13159     13162     13162     13165     13166     13162     13165     13167
     13162     13165     13168     13163     13162     13164     13163     13162     13165
     13164     13162     13165     13165     13168     13169     13165     13168     13170
     13165     13168     13171     13166     13165     13167     13166     13165     13168
     13167     13165     13168     13168     13171     13172     13168     13171     13173
     13168     13171     13174     13169     13168     13170     13169     13168     13171
     13170     13168     13171     13171     13174     13175     13171     13174     13176
     13171     13174     13177     13172     13171     13173     13172     13171     13174
     13173     13171     13174     13174     13177     13178     13174     13177     13179
     13175     13174     13176     13175     13174     13177     13176     13174     13177
     13177     13179     13180     13177     13179     13181     13178     13177     13179
     13179     13181     13182     13179     13181     13183     13179     13181     13184
     13180     13179     13181     13181     13184     13185     13181     13184     13186
     13181     13184     13187     13182     13181     13183     13182     13181     13184
     13183     13181     13184     13184     13187     13188     13184     13187     13189
     13184     13187     13190     13185     13184     13186     13185     13184     13187
     13186     13184     13187     13187     13190     13191     13187     13190     13192
     13187     13190     13193     13188     13187     13189     13188     13187     13190
     13189     13187     13190     13190     13193     13194     13190     13193     13195
     13190     13193     13196     13191     13190     13192     13191     13190     13193
     13192     13190     13193     13193     13196     13197     13193     13196     13198
     13193     13196     13199     13194     13193     13195     13194     13193     13196
     13195     13193     13196     13196     13199     13200     13196     13199     13201
     13196     13199     13202     13197     13196     13198     13197     13196     13199
     13198     13196     13199     13199     13202     13203     13199     13202     13204
     13199     13202     13205     13200     13199     13201     13200     13199     13202
     13201     13199     13202     13203     13202     13204     13203     13202     13205
     13204     13202     13205     13206     13208     13209     13206     13210     13211
     13206     13210     13212     13206     13210     13213     13206     13252     13249
     13206     13252     13253     13206     13252     13254     13207     13206     13208
     13207     13206     13210     13207     13206     13252     13208     13206     13210
     13208     13206     13252     13210     13206     13252     13210     13213     13214
     13210     13213     13244     13211     13210     13212     13211     13210     13213
     13212     13210     13213     13213     13214     13215     13213     13214     13216
     13213     13244     13242     13213     13244     13245     13213     13244     13249
     13214     13213     13244     13214     13216     13217     13214     13216     13218
     13214     13216     13219     13215     13214     13216     13216     13219     13220
     13216     13219     13221     13216     13219     13242     13217     13216     13218
     13217     13216     13219     13218     13216     13219     13219     13221     13222
     13219     13221     13223     13219     13221     13231     13219     13242     13239
     13219     13242     13243     13219     13242     13244     13220     13219     13221
     13220     13219     13242     13221     13219     13242     13221     13223     13224
     13221     13223     13225     13221     13223     13226     13221     13231     13229
     13221     13231     13232     13221     13231     13236     13222     13221     13223
     13222     13221     13231     13223     13221     13231     13223     13226     13227
     13223     13226     13228     13223     13226     13229     13224     13223     13225
     13224     13223     13226     13225     13223     13226     13226     13229     13230
     13226     13229     13231     13226     13229     13255     13227     13226     13228
     13227     13226     13229     13228     13226     13229     13229     13231     13232
     13229     13231     13236     13229     13255     13256     13229     13255     13257
     13229     13255     13261     13230     13229     13231     13230     13229     13255
     13231     13229     13255     13231     13232     13233     13231     13232     13234
     13231     13232     13235     13231     13236     13237     13231     13236     13238
     13231     13236     13239     13232     13231     13236     13233     13232     13234
     13233     13232     13235     13234     13232     13235     13236     13239     13240
     13236     13239     13241     13236     13239     13242     13237     13236     13238
     13237     13236     13239     13238     13236     13239     13239     13242     13243
     13239     13242     13244     13240     13239     13241     13240     13239     13242
     13241     13239     13242     13242     13244     13245     13242     13244     13249
     13243     13242     13244     13244     13245     13246     13244     13245     13247
     13244     13245     13248     13244     13249     13250     13244     13249     13251
     13244     13249     13252     13245     13244     13249     13246     13245     13247
     13246     13245     13248     13247     13245     13248     13249     13252     13253
     13249     13252     13254     13250     13249     13251     13250     13249     13252
     13251     13249     13252     13253     13252     13254     13255     13257     13258
     13255     13257     13259     13255     13257     13260     13255     13261     13262
     13255     13261     13263     13255     13261     13264     13256     13255     13257
     13256     13255     13261     13257     13255     13261     13258     13257     13259
     13258     13257     13260     13259     13257     13260     13261     13264     13265
     13261     13264     13266     13261     13264     13267     13262     13261     13263
     13262     13261     13264     13263     13261     13264     13264     13267     13268
     13264     13267     13269     13264     13267     13270     13265     13264     13266
     13265     13264     13267     13266     13264     13267     13267     13270     13271
     13267     13270     13272     13267     13270     13276     13268     13267     13269
     13268     13267     13270     13269     13267     13270     13270     13272     13273
     13270     13272     13274     13270     13272     13275     13270     13276     13277
     13270     13276     13278     13270     13276     13279     13271     13270     13272
     13271     13270     13276     13272     13270     13276     13273     13272     13274
     13273     13272     13275     13274     13272     13275     13277     13276     13278
     13277     13276     13279     13278     13276     13279     13280     13281     13282
     13280     13281     13283     13280     13281     13284     13280     13285     13286
     13280     13285     13287     13280     13285     13288     13280     13289     13290
     13280     13289     13291     13280     13289     13292     13280     13293     13294
     13280     13293     13295     13280     13293     13296     13281     13280     13285
     13281     13280     13289     13281     13280     13293     13282     13281     13283
     13282     13281     13284     13283     13281     13284     13285     13280     13289
     13285     13280     13293     13286     13285     13287     13286     13285     13288
     13287     13285     13288     13289     13280     13293     13290     13289     13291
     13290     13289     13292     13291     13289     13292     13293     13296     13297
     13293     13296     13298     13293     13296     13303     13294     13293     13295
     13294     13293     13296     13295     13293     13296     13296     13303     13299
     13297     13296     13298     13297     13296     13303     13298     13296     13303
     13299     13302     13304     13300     13299     13301     13300     13299     13302
     13300     13299     13303     13301     13299     13302     13301     13299     13303
     13302     13299     13303     13302     13304     13305     13302     13304     13306
     13302     13304     13309     13304     13309     13307     13304     13309     13310
     13304     13309     13311     13305     13304     13306     13305     13304     13309
     13306     13304     13309     13307     13309     13310     13307     13309     13311
     13307     13359     13360     13307     13359     13361     13308     13307     13309
     13308     13307     13359     13309     13307     13359     13309     13311     13312
     13309     13311     13313     13309     13311     13315     13310     13309     13311
     13311     13313     13314     13311     13315     13316     13311     13315     13317
     13312     13311     13313     13312     13311     13315     13313     13311     13315
     13315     13317     13318     13315     13317     13319     13316     13315     13317
     13317     13319     13320     13317     13319     13321     13317     13319     13322
     13318     13317     13319     13319     13322     13323     13319     13322     13324
     13319     13322     13325     13320     13319     13321     13320     13319     13322
     13321     13319     13322     13322     13325     13326     13322     13325     13327
     13322     13325     13328     13323     13322     13324     13323     13322     13325
     13324     13322     13325     13325     13328     13329     13325     13328     13330
     13325     13328     13331     13326     13325     13327     13326     13325     13328
     13327     13325     13328     13328     13331     13332     13328     13331     13333
     13328     13331     13334     13329     13328     13330     13329     13328     13331
     13330     13328     13331     13331     13334     13335     13331     13334     13336
     13331     13334     13337     13332     13331     13333     13332     13331     13334
     13333     13331     13334     13334     13337     13338     13334     13337     13339
     13334     13337     13340     13335     13334     13336     13335     13334     13337
     13336     13334     13337     13337     13340     13341     13337     13340     13342
     13337     13340     13343     13338     13337     13339     13338     13337     13340
     13339     13337     13340     13340     13343     13344     13340     13343     13345
     13340     13343     13346     13341     13340     13342     13341     13340     13343
     13342     13340     13343     13343     13346     13347     13343     13346     13348
     13343     13346     13349     13344     13343     13345     13344     13343     13346
     13345     13343     13346     13346     13349     13350     13346     13349     13351
     13346     13349     13352     13347     13346     13348     13347     13346     13349
     13348     13346     13349     13349     13352     13353     13349     13352     13354
     13349     13352     13355     13350     13349     13351     13350     13349     13352
     13351     13349     13352     13352     13355     13356     13352     13355     13357
     13352     13355     13358     13353     13352     13354     13353     13352     13355
     13354     13352     13355     13356     13355     13357     13356     13355     13358
     13357     13355     13358     13359     13361     13362     13359     13361     13363
     13359     13361     13364     13360     13359     13361     13361     13364     13365
     13361     13364     13366     13361     13364     13367     13362     13361     13363
     13362     13361     13364     13363     13361     13364     13364     13367     13368
     13364     13367     13369     13364     13367     13370     13365     13364     13366
     13365     13364     13367     13366     13364     13367     13367     13370     13371
     13367     13370     13372     13367     13370     13373     13368     13367     13369
     13368     13367     13370     13369     13367     13370     13370     13373     13374
     13370     13373     13375     13370     13373     13376     13371     13370     13372
     13371     13370     13373     13372     13370     13373     13373     13376     13377
     13373     13376     13378     13373     13376     13379     13374     13373     13375
     13374     13373     13376     13375     13373     13376     13376     13379     13380
     13376     13379     13381     13376     13379     13382     13377     13376     13378
     13377     13376     13379     13378     13376     13379     13379     13382     13383
     13379     13382     13384     13380     13379     13381     13380     13379     13382
     13381     13379     13382     13382     13384     13385     13382     13384     13386
     13383     13382     13384     13384     13386     13387     13384     13386     13388
     13384     13386     13389     13385     13384     13386     13386     13389     13390
     13386     13389     13391     13386     13389     13392     13387     13386     13388
     13387     13386     13389     13388     13386     13389     13389     13392     13393
     13389     13392     13394     13389     13392     13395     13390     13389     13391
     13390     13389     13392     13391     13389     13392     13392     13395     13396
     13392     13395     13397     13392     13395     13398     13393     13392     13394
     13393     13392     13395     13394     13392     13395     13395     13398     13399
     13395     13398     13400     13395     13398     13401     13396     13395     13397
     13396     13395     13398     13397     13395     13398     13398     13401     13402
     13398     13401     13403     13398     13401     13404     13399     13398     13400
     13399     13398     13401     13400     13398     13401     13401     13404     13405
     13401     13404     13406     13401     13404     13407     13402     13401     13403
     13402     13401     13404     13403     13401     13404     13404     13407     13408
     13404     13407     13409     13404     13407     13410     13405     13404     13406
     13405     13404     13407     13406     13404     13407     13408     13407     13409
     13408     13407     13410     13409     13407     13410     13411     13413     13414
     13411     13415     13416     13411     13415     13417     13411     13415     13418
     13411     13457     13454     13411     13457     13458     13411     13457     13459
     13412     13411     13413     13412     13411     13415     13412     13411     13457
     13413     13411     13415     13413     13411     13457     13415     13411     13457
     13415     13418     13419     13415     13418     13449     13416     13415     13417
     13416     13415     13418     13417     13415     13418     13418     13419     13420
     13418     13419     13421     13418     13449     13447     13418     13449     13450
     13418     13449     13454     13419     13418     13449     13419     13421     13422
     13419     13421     13423     13419     13421     13424     13420     13419     13421
     13421     13424     13425     13421     13424     13426     13421     13424     13447
     13422     13421     13423     13422     13421     13424     13423     13421     13424
     13424     13426     13427     13424     13426     13428     13424     13426     13436
     13424     13447     13444     13424     13447     13448     13424     13447     13449
     13425     13424     13426     13425     13424     13447     13426     13424     13447
     13426     13428     13429     13426     13428     13430     13426     13428     13431
     13426     13436     13434     13426     13436     13437     13426     13436     13441
     13427     13426     13428     13427     13426     13436     13428     13426     13436
     13428     13431     13432     13428     13431     13433     13428     13431     13434
     13429     13428     13430     13429     13428     13431     13430     13428     13431
     13431     13434     13435     13431     13434     13436     13431     13434     13460
     13432     13431     13433     13432     13431     13434     13433     13431     13434
     13434     13436     13437     13434     13436     13441     13434     13460     13461
     13434     13460     13462     13434     13460     13466     13435     13434     13436
     13435     13434     13460     13436     13434     13460     13436     13437     13438
     13436     13437     13439     13436     13437     13440     13436     13441     13442
     13436     13441     13443     13436     13441     13444     13437     13436     13441
     13438     13437     13439     13438     13437     13440     13439     13437     13440
     13441     13444     13445     13441     13444     13446     13441     13444     13447
     13442     13441     13443     13442     13441     13444     13443     13441     13444
     13444     13447     13448     13444     13447     13449     13445     13444     13446
     13445     13444     13447     13446     13444     13447     13447     13449     13450
     13447     13449     13454     13448     13447     13449     13449     13450     13451
     13449     13450     13452     13449     13450     13453     13449     13454     13455
     13449     13454     13456     13449     13454     13457     13450     13449     13454
     13451     13450     13452     13451     13450     13453     13452     13450     13453
     13454     13457     13458     13454     13457     13459     13455     13454     13456
     13455     13454     13457     13456     13454     13457     13458     13457     13459
     13460     13462     13463     13460     13462     13464     13460     13462     13465
     13460     13466     13467     13460     13466     13468     13460     13466     13469
     13461     13460     13462     13461     13460     13466     13462     13460     13466
     13463     13462     13464     13463     13462     13465     13464     13462     13465
     13466     13469     13470     13466     13469     13471     13466     13469     13472
     13467     13466     13468     13467     13466     13469     13468     13466     13469
     13469     13472     13473     13469     13472     13474     13469     13472     13475
     13470     13469     13471     13470     13469     13472     13471     13469     13472
     13472     13475     13476     13472     13475     13477     13472     13475     13481
     13473     13472     13474     13473     13472     13475     13474     13472     13475
     13475     13477     13478     13475     13477     13479     13475     13477     13480
     13475     13481     13482     13475     13481     13483     13475     13481     13484
     13476     13475     13477     13476     13475     13481     13477     13475     13481
     13478     13477     13479     13478     13477     13480     13479     13477     13480
     13482     13481     13483     13482     13481     13484     13483     13481     13484
     13485     13487     13488     13485     13489     13490     13485     13489     13491
     13485     13489     13492     13485     13531     13528     13485     13531     13532
     13485     13531     13533     13486     13485     13487     13486     13485     13489
     13486     13485     13531     13487     13485     13489     13487     13485     13531
     13489     13485     13531     13489     13492     13493     13489     13492     13523
     13490     13489     13491     13490     13489     13492     13491     13489     13492
     13492     13493     13494     13492     13493     13495     13492     13523     13521
     13492     13523     13524     13492     13523     13528     13493     13492     13523
     13493     13495     13496     13493     13495     13497     13493     13495     13498
     13494     13493     13495     13495     13498     13499     13495     13498     13500
     13495     13498     13521     13496     13495     13497     13496     13495     13498
     13497     13495     13498     13498     13500     13501     13498     13500     13502
     13498     13500     13510     13498     13521     13518     13498     13521     13522
     13498     13521     13523     13499     13498     13500     13499     13498     13521
     13500     13498     13521     13500     13502     13503     13500     13502     13504
     13500     13502     13505     13500     13510     13508     13500     13510     13511
     13500     13510     13515     13501     13500     13502     13501     13500     13510
     13502     13500     13510     13502     13505     13506     13502     13505     13507
     13502     13505     13508     13503     13502     13504     13503     13502     13505
     13504     13502     13505     13505     13508     13509     13505     13508     13510
     13505     13508     13534     13506     13505     13507     13506     13505     13508
     13507     13505     13508     13508     13510     13511     13508     13510     13515
     13508     13534     13535     13508     13534     13536     13508     13534     13540
     13509     13508     13510     13509     13508     13534     13510     13508     13534
     13510     13511     13512     13510     13511     13513     13510     13511     13514
     13510     13515     13516     13510     13515     13517     13510     13515     13518
     13511     13510     13515     13512     13511     13513     13512     13511     13514
     13513     13511     13514     13515     13518     13519     13515     13518     13520
     13515     13518     13521     13516     13515     13517     13516     13515     13518
     13517     13515     13518     13518     13521     13522     13518     13521     13523
     13519     13518     13520     13519     13518     13521     13520     13518     13521
     13521     13523     13524     13521     13523     13528     13522     13521     13523
     13523     13524     13525     13523     13524     13526     13523     13524     13527
     13523     13528     13529     13523     13528     13530     13523     13528     13531
     13524     13523     13528     13525     13524     13526     13525     13524     13527
     13526     13524     13527     13528     13531     13532     13528     13531     13533
     13529     13528     13530     13529     13528     13531     13530     13528     13531
     13532     13531     13533     13534     13536     13537     13534     13536     13538
     13534     13536     13539     13534     13540     13541     13534     13540     13542
     13534     13540     13543     13535     13534     13536     13535     13534     13540
     13536     13534     13540     13537     13536     13538     13537     13536     13539
     13538     13536     13539     13540     13543     13544     13540     13543     13545
     13540     13543     13546     13541     13540     13542     13541     13540     13543
     13542     13540     13543     13543     13546     13547     13543     13546     13548
     13543     13546     13549     13544     13543     13545     13544     13543     13546
     13545     13543     13546     13546     13549     13550     13546     13549     13551
     13546     13549     13555     13547     13546     13548     13547     13546     13549
     13548     13546     13549     13549     13551     13552     13549     13551     13553
     13549     13551     13554     13549     13555     13556     13549     13555     13557
     13549     13555     13558     13550     13549     13551     13550     13549     13555
     13551     13549     13555     13552     13551     13553     13552     13551     13554
     13553     13551     13554     13556     13555     13557     13556     13555     13558
     13557     13555     13558     13559     13560     13561     13559     13560     13562
     13559     13560     13575     13559     13563     13564     13559     13563     13565
     13559     13563     13566     13559     13567     13568     13559     13567     13569
     13559     13567     13570     13559     13571     13572     13559     13571     13573
     13559     13571     13574     13560     13559     13563     13560     13559     13567
     13560     13559     13571     13560     13575     13576     13560     13575     13577
     13560     13575     13581     13561     13560     13562     13561     13560     13575
     13562     13560     13575     13563     13559     13567     13563     13559     13571
     13564     13563     13565     13564     13563     13566     13565     13563     13566
     13567     13559     13571     13568     13567     13569     13568     13567     13570
     13569     13567     13570     13572     13571     13573     13572     13571     13574
     13573     13571     13574     13575     13581     13578     13576     13575     13577
     13576     13575     13581     13577     13575     13581     13578     13582     13583
     13579     13578     13580     13579     13578     13581     13579     13578     13582
     13580     13578     13581     13580     13578     13582     13581     13578     13582
     13582     13583     13584     13582     13583     13585     13582     13583     13586
     13583     13586     13587     13583     13586     13588     13583     13586     13594
     13584     13583     13585     13584     13583     13586     13585     13583     13586
     13586     13588     13589     13586     13594     13595     13586     13594     13596
     13586     13594     13597     13587     13586     13588     13587     13586     13594
     13588     13586     13594     13588     13589     13590     13588     13589     13591
     13589     13591     13592     13589     13591     13593     13589     13591     13603
     13590     13589     13591     13591     13603     13604     13591     13603     13605
     13591     13603     13606     13592     13591     13593     13592     13591     13603
     13593     13591     13603     13594     13597     13598     13595     13594     13596
     13595     13594     13597     13596     13594     13597     13597     13598     13599
     13597     13598     13600     13598     13600     13601     13598     13600     13602
     13598     13600     13650     13599     13598     13600     13600     13650     13651
     13600     13650     13652     13600     13650     13653     13601     13600     13602
     13601     13600     13650     13602     13600     13650     13603     13606     13607
     13603     13606     13608     13603     13606     13609     13604     13603     13605
     13604     13603     13606     13605     13603     13606     13606     13609     13610
     13606     13609     13611     13607     13606     13608     13607     13606     13609
     13608     13606     13609     13609     13611     13612     13609     13611     13613
     13610     13609     13611     13611     13613     13614     13611     13613     13615
     13611     13613     13616     13612     13611     13613     13613     13616     13617
     13613     13616     13618     13614     13613     13615     13614     13613     13616
     13615     13613     13616     13616     13618     13619     13616     13618     13620
     13617     13616     13618     13618     13620     13621     13618     13620     13622
     13618     13620     13623     13619     13618     13620     13620     13623     13624
     13620     13623     13625     13621     13620     13622     13621     13620     13623
     13622     13620     13623     13623     13625     13626     13623     13625     13627
     13624     13623     13625     13625     13627     13628     13625     13627     13629
     13625     13627     13630     13626     13625     13627     13627     13630     13631
     13627     13630     13632     13628     13627     13629     13628     13627     13630
     13629     13627     13630     13630     13632     13633     13630     13632     13634
     13631     13630     13632     13632     13634     13635     13632     13634     13636
     13632     13634     13637     13633     13632     13634     13634     13637     13638
     13634     13637     13639     13634     13637     13640     13635     13634     13636
     13635     13634     13637     13636     13634     13637     13637     13640     13641
     13637     13640     13642     13637     13640     13643     13638     13637     13639
     13638     13637     13640     13639     13637     13640     13640     13643     13644
     13640     13643     13645     13640     13643     13646     13641     13640     13642
     13641     13640     13643     13642     13640     13643     13643     13646     13647
     13643     13646     13648     13643     13646     13649     13644     13643     13645
     13644     13643     13646     13645     13643     13646     13647     13646     13648
     13647     13646     13649     13648     13646     13649     13650     13653     13654
     13650     13653     13655     13650     13653     13656     13651     13650     13652
     13651     13650     13653     13652     13650     13653     13653     13656     13657
     13653     13656     13658     13653     13656     13659     13654     13653     13655
     13654     13653     13656     13655     13653     13656     13656     13659     13660
     13656     13659     13661     13656     13659     13662     13657     13656     13658
     13657     13656     13659     13658     13656     13659     13659     13662     13663
     13659     13662     13664     13659     13662     13665     13660     13659     13661
     13660     13659     13662     13661     13659     13662     13662     13665     13666
     13662     13665     13667     13662     13665     13668     13663     13662     13664
     13663     13662     13665     13664     13662     13665     13665     13668     13669
     13665     13668     13670     13665     13668     13671     13666     13665     13667
     13666     13665     13668     13667     13665     13668     13668     13671     13672
     13668     13671     13673     13668     13671     13674     13669     13668     13670
     13669     13668     13671     13670     13668     13671     13671     13674     13675
     13671     13674     13676     13671     13674     13677     13672     13671     13673
     13672     13671     13674     13673     13671     13674     13674     13677     13678
     13674     13677     13679     13674     13677     13680     13675     13674     13676
     13675     13674     13677     13676     13674     13677     13677     13680     13681
     13677     13680     13682     13677     13680     13683     13678     13677     13679
     13678     13677     13680     13679     13677     13680     13680     13683     13684
     13680     13683     13685     13680     13683     13686     13681     13680     13682
     13681     13680     13683     13682     13680     13683     13683     13686     13687
     13683     13686     13688     13683     13686     13689     13684     13683     13685
     13684     13683     13686     13685     13683     13686     13686     13689     13690
     13686     13689     13691     13686     13689     13692     13687     13686     13688
     13687     13686     13689     13688     13686     13689     13689     13692     13693
     13689     13692     13694     13689     13692     13695     13690     13689     13691
     13690     13689     13692     13691     13689     13692     13692     13695     13696
     13692     13695     13697     13692     13695     13698     13693     13692     13694
     13693     13692     13695     13694     13692     13695     13696     13695     13697
     13696     13695     13698     13697     13695     13698     13699     13701     13702
     13699     13703     13704     13699     13703     13705     13699     13703     13706
     13699     13745     13742     13699     13745     13746     13699     13745     13747
     13700     13699     13701     13700     13699     13703     13700     13699     13745
     13701     13699     13703     13701     13699     13745     13703     13699     13745
     13703     13706     13707     13703     13706     13737     13704     13703     13705
     13704     13703     13706     13705     13703     13706     13706     13707     13708
     13706     13707     13709     13706     13737     13735     13706     13737     13738
     13706     13737     13742     13707     13706     13737     13707     13709     13710
     13707     13709     13711     13707     13709     13712     13708     13707     13709
     13709     13712     13713     13709     13712     13714     13709     13712     13735
     13710     13709     13711     13710     13709     13712     13711     13709     13712
     13712     13714     13715     13712     13714     13716     13712     13714     13724
     13712     13735     13732     13712     13735     13736     13712     13735     13737
     13713     13712     13714     13713     13712     13735     13714     13712     13735
     13714     13716     13717     13714     13716     13718     13714     13716     13719
     13714     13724     13722     13714     13724     13725     13714     13724     13729
     13715     13714     13716     13715     13714     13724     13716     13714     13724
     13716     13719     13720     13716     13719     13721     13716     13719     13722
     13717     13716     13718     13717     13716     13719     13718     13716     13719
     13719     13722     13723     13719     13722     13724     13719     13722     13748
     13720     13719     13721     13720     13719     13722     13721     13719     13722
     13722     13724     13725     13722     13724     13729     13722     13748     13749
     13722     13748     13750     13722     13748     13754     13723     13722     13724
     13723     13722     13748     13724     13722     13748     13724     13725     13726
     13724     13725     13727     13724     13725     13728     13724     13729     13730
     13724     13729     13731     13724     13729     13732     13725     13724     13729
     13726     13725     13727     13726     13725     13728     13727     13725     13728
     13729     13732     13733     13729     13732     13734     13729     13732     13735
     13730     13729     13731     13730     13729     13732     13731     13729     13732
     13732     13735     13736     13732     13735     13737     13733     13732     13734
     13733     13732     13735     13734     13732     13735     13735     13737     13738
     13735     13737     13742     13736     13735     13737     13737     13738     13739
     13737     13738     13740     13737     13738     13741     13737     13742     13743
     13737     13742     13744     13737     13742     13745     13738     13737     13742
     13739     13738     13740     13739     13738     13741     13740     13738     13741
     13742     13745     13746     13742     13745     13747     13743     13742     13744
     13743     13742     13745     13744     13742     13745     13746     13745     13747
     13748     13750     13751     13748     13750     13752     13748     13750     13753
     13748     13754     13755     13748     13754     13756     13748     13754     13757
     13749     13748     13750     13749     13748     13754     13750     13748     13754
     13751     13750     13752     13751     13750     13753     13752     13750     13753
     13754     13757     13758     13754     13757     13759     13754     13757     13760
     13755     13754     13756     13755     13754     13757     13756     13754     13757
     13757     13760     13761     13757     13760     13762     13757     13760     13763
     13758     13757     13759     13758     13757     13760     13759     13757     13760
     13760     13763     13764     13760     13763     13765     13760     13763     13769
     13761     13760     13762     13761     13760     13763     13762     13760     13763
     13763     13765     13766     13763     13765     13767     13763     13765     13768
     13763     13769     13770     13763     13769     13771     13763     13769     13772
     13764     13763     13765     13764     13763     13769     13765     13763     13769
     13766     13765     13767     13766     13765     13768     13767     13765     13768
     13770     13769     13771     13770     13769     13772     13771     13769     13772
     13773     13774     13775     13773     13774     13776     13773     13774     13789
     13773     13777     13778     13773     13777     13779     13773     13777     13780
     13773     13781     13782     13773     13781     13783     13773     13781     13784
     13773     13785     13786     13773     13785     13787     13773     13785     13788
     13774     13773     13777     13774     13773     13781     13774     13773     13785
     13774     13789     13790     13774     13789     13791     13774     13789     13795
     13775     13774     13776     13775     13774     13789     13776     13774     13789
     13777     13773     13781     13777     13773     13785     13778     13777     13779
     13778     13777     13780     13779     13777     13780     13781     13773     13785
     13782     13781     13783     13782     13781     13784     13783     13781     13784
     13786     13785     13787     13786     13785     13788     13787     13785     13788
     13789     13795     13792     13790     13789     13791     13790     13789     13795
     13791     13789     13795     13792     13796     13797     13793     13792     13794
     13793     13792     13795     13793     13792     13796     13794     13792     13795
     13794     13792     13796     13795     13792     13796     13796     13797     13798
     13796     13797     13799     13796     13797     13800     13797     13800     13801
     13797     13800     13802     13797     13800     13808     13798     13797     13799
     13798     13797     13800     13799     13797     13800     13800     13802     13803
     13800     13808     13809     13800     13808     13810     13800     13808     13811
     13801     13800     13802     13801     13800     13808     13802     13800     13808
     13802     13803     13804     13802     13803     13805     13803     13805     13806
     13803     13805     13807     13803     13805     13817     13804     13803     13805
     13805     13817     13818     13805     13817     13819     13805     13817     13820
     13806     13805     13807     13806     13805     13817     13807     13805     13817
     13808     13811     13812     13809     13808     13810     13809     13808     13811
     13810     13808     13811     13811     13812     13813     13811     13812     13814
     13812     13814     13815     13812     13814     13816     13812     13814     13864
     13813     13812     13814     13814     13864     13865     13814     13864     13866
     13814     13864     13867     13815     13814     13816     13815     13814     13864
     13816     13814     13864     13817     13820     13821     13817     13820     13822
     13817     13820     13823     13818     13817     13819     13818     13817     13820
     13819     13817     13820     13820     13823     13824     13820     13823     13825
     13821     13820     13822     13821     13820     13823     13822     13820     13823
     13823     13825     13826     13823     13825     13827     13824     13823     13825
     13825     13827     13828     13825     13827     13829     13825     13827     13830
     13826     13825     13827     13827     13830     13831     13827     13830     13832
     13828     13827     13829     13828     13827     13830     13829     13827     13830
     13830     13832     13833     13830     13832     13834     13831     13830     13832
     13832     13834     13835     13832     13834     13836     13832     13834     13837
     13833     13832     13834     13834     13837     13838     13834     13837     13839
     13835     13834     13836     13835     13834     13837     13836     13834     13837
     13837     13839     13840     13837     13839     13841     13838     13837     13839
     13839     13841     13842     13839     13841     13843     13839     13841     13844
     13840     13839     13841     13841     13844     13845     13841     13844     13846
     13842     13841     13843     13842     13841     13844     13843     13841     13844
     13844     13846     13847     13844     13846     13848     13845     13844     13846
     13846     13848     13849     13846     13848     13850     13846     13848     13851
     13847     13846     13848     13848     13851     13852     13848     13851     13853
     13848     13851     13854     13849     13848     13850     13849     13848     13851
     13850     13848     13851     13851     13854     13855     13851     13854     13856
     13851     13854     13857     13852     13851     13853     13852     13851     13854
     13853     13851     13854     13854     13857     13858     13854     13857     13859
     13854     13857     13860     13855     13854     13856     13855     13854     13857
     13856     13854     13857     13857     13860     13861     13857     13860     13862
     13857     13860     13863     13858     13857     13859     13858     13857     13860
     13859     13857     13860     13861     13860     13862     13861     13860     13863
     13862     13860     13863     13864     13867     13868     13864     13867     13869
     13864     13867     13870     13865     13864     13866     13865     13864     13867
     13866     13864     13867     13867     13870     13871     13867     13870     13872
     13867     13870     13873     13868     13867     13869     13868     13867     13870
     13869     13867     13870     13870     13873     13874     13870     13873     13875
     13870     13873     13876     13871     13870     13872     13871     13870     13873
     13872     13870     13873     13873     13876     13877     13873     13876     13878
     13873     13876     13879     13874     13873     13875     13874     13873     13876
     13875     13873     13876     13876     13879     13880     13876     13879     13881
     13876     13879     13882     13877     13876     13878     13877     13876     13879
     13878     13876     13879     13879     13882     13883     13879     13882     13884
     13879     13882     13885     13880     13879     13881     13880     13879     13882
     13881     13879     13882     13882     13885     13886     13882     13885     13887
     13882     13885     13888     13883     13882     13884     13883     13882     13885
     13884     13882     13885     13885     13888     13889     13885     13888     13890
     13885     13888     13891     13886     13885     13887     13886     13885     13888
     13887     13885     13888     13888     13891     13892     13888     13891     13893
     13888     13891     13894     13889     13888     13890     13889     13888     13891
     13890     13888     13891     13891     13894     13895     13891     13894     13896
     13891     13894     13897     13892     13891     13893     13892     13891     13894
     13893     13891     13894     13894     13897     13898     13894     13897     13899
     13894     13897     13900     13895     13894     13896     13895     13894     13897
     13896     13894     13897     13897     13900     13901     13897     13900     13902
     13897     13900     13903     13898     13897     13899     13898     13897     13900
     13899     13897     13900     13900     13903     13904     13900     13903     13905
     13900     13903     13906     13901     13900     13902     13901     13900     13903
     13902     13900     13903     13903     13906     13907     13903     13906     13908
     13903     13906     13909     13904     13903     13905     13904     13903     13906
     13905     13903     13906     13906     13909     13910     13906     13909     13911
     13906     13909     13912     13907     13906     13908     13907     13906     13909
     13908     13906     13909     13910     13909     13911     13910     13909     13912
     13911     13909     13912     13913     13917     13918     13913     13917     13919
     13913     13917     13920     13914     13913     13915     13914     13913     13916
     13914     13913     13917     13915     13913     13916     13915     13913     13917
     13916     13913     13917     13917     13920     13921     13917     13920     13922
     13917     13920     13926     13918     13917     13919     13918     13917     13920
     13919     13917     13920     13920     13926     13923     13921     13920     13922
     13921     13920     13926     13922     13920     13926     13923     13927     13928
     13924     13923     13925     13924     13923     13926     13924     13923     13927
     13925     13923     13926     13925     13923     13927     13926     13923     13927
     13927     13928     13929     13927     13928     13930     13927     13928     13931
     13928     13931     13932     13928     13931     13933     13928     13931     13939
     13929     13928     13930     13929     13928     13931     13930     13928     13931
     13931     13933     13934     13931     13939     13940     13931     13939     13941
     13931     13939     13942     13932     13931     13933     13932     13931     13939
     13933     13931     13939     13933     13934     13935     13933     13934     13936
     13934     13936     13937     13934     13936     13938     13934     13936     13948
     13935     13934     13936     13936     13948     13949     13936     13948     13950
     13936     13948     13951     13937     13936     13938     13937     13936     13948
     13938     13936     13948     13939     13942     13943     13940     13939     13941
     13940     13939     13942     13941     13939     13942     13942     13943     13944
     13942     13943     13945     13943     13945     13946     13943     13945     13947
     13943     13945     13995     13944     13943     13945     13945     13995     13996
     13945     13995     13997     13945     13995     13998     13946     13945     13947
     13946     13945     13995     13947     13945     13995     13948     13951     13952
     13948     13951     13953     13948     13951     13954     13949     13948     13950
     13949     13948     13951     13950     13948     13951     13951     13954     13955
     13951     13954     13956     13951     13954     13957     13952     13951     13953
     13952     13951     13954     13953     13951     13954     13954     13957     13958
     13954     13957     13959     13954     13957     13960     13955     13954     13956
     13955     13954     13957     13956     13954     13957     13957     13960     13961
     13957     13960     13962     13957     13960     13963     13958     13957     13959
     13958     13957     13960     13959     13957     13960     13960     13963     13964
     13960     13963     13965     13960     13963     13966     13961     13960     13962
     13961     13960     13963     13962     13960     13963     13963     13966     13967
     13963     13966     13968     13964     13963     13965     13964     13963     13966
     13965     13963     13966     13966     13968     13969     13966     13968     13970
     13967     13966     13968     13968     13970     13971     13968     13970     13972
     13968     13970     13973     13969     13968     13970     13970     13973     13974
     13970     13973     13975     13970     13973     13976     13971     13970     13972
     13971     13970     13973     13972     13970     13973     13973     13976     13977
     13973     13976     13978     13973     13976     13979     13974     13973     13975
     13974     13973     13976     13975     13973     13976     13976     13979     13980
     13976     13979     13981     13976     13979     13982     13977     13976     13978
     13977     13976     13979     13978     13976     13979     13979     13982     13983
     13979     13982     13984     13979     13982     13985     13980     13979     13981
     13980     13979     13982     13981     13979     13982     13982     13985     13986
     13982     13985     13987     13982     13985     13988     13983     13982     13984
     13983     13982     13985     13984     13982     13985     13985     13988     13989
     13985     13988     13990     13985     13988     13991     13986     13985     13987
     13986     13985     13988     13987     13985     13988     13988     13991     13992
     13988     13991     13993     13988     13991     13994     13989     13988     13990
     13989     13988     13991     13990     13988     13991     13992     13991     13993
     13992     13991     13994     13993     13991     13994     13995     13998     13999
     13995     13998     14000     13995     13998     14001     13996     13995     13997
     13996     13995     13998     13997     13995     13998     13998     14001     14002
     13998     14001     14003     13998     14001     14004     13999     13998     14000
     13999     13998     14001     14000     13998     14001     14001     14004     14005
     14001     14004     14006     14001     14004     14007     14002     14001     14003
     14002     14001     14004     14003     14001     14004     14004     14007     14008
     14004     14007     14009     14004     14007     14010     14005     14004     14006
     14005     14004     14007     14006     14004     14007     14007     14010     14011
     14007     14010     14012     14007     14010     14013     14008     14007     14009
     14008     14007     14010     14009     14007     14010     14010     14013     14014
     14010     14013     14015     14010     14013     14016     14011     14010     14012
     14011     14010     14013     14012     14010     14013     14013     14016     14017
     14013     14016     14018     14013     14016     14019     14014     14013     14015
     14014     14013     14016     14015     14013     14016     14016     14019     14020
     14016     14019     14021     14016     14019     14022     14017     14016     14018
     14017     14016     14019     14018     14016     14019     14019     14022     14023
     14019     14022     14024     14019     14022     14025     14020     14019     14021
     14020     14019     14022     14021     14019     14022     14022     14025     14026
     14022     14025     14027     14022     14025     14028     14023     14022     14024
     14023     14022     14025     14024     14022     14025     14025     14028     14029
     14025     14028     14030     14025     14028     14031     14026     14025     14027
     14026     14025     14028     14027     14025     14028     14028     14031     14032
     14028     14031     14033     14028     14031     14034     14029     14028     14030
     14029     14028     14031     14030     14028     14031     14031     14034     14035
     14031     14034     14036     14031     14034     14037     14032     14031     14033
     14032     14031     14034     14033     14031     14034     14034     14037     14038
     14034     14037     14039     14034     14037     14040     14035     14034     14036
     14035     14034     14037     14036     14034     14037     14037     14040     14041
     14037     14040     14042     14037     14040     14043     14038     14037     14039
     14038     14037     14040     14039     14037     14040     14041     14040     14042
     14041     14040     14043     14042     14040     14043     14044     14048     14049
     14044     14048     14050     14044     14048     14051     14045     14044     14046
     14045     14044     14047     14045     14044     14048     14046     14044     14047
     14046     14044     14048     14047     14044     14048     14048     14051     14052
     14048     14051     14053     14048     14051     14057     14049     14048     14050
     14049     14048     14051     14050     14048     14051     14051     14057     14054
     14052     14051     14053     14052     14051     14057     14053     14051     14057
     14054     14058     14059     14055     14054     14056     14055     14054     14057
     14055     14054     14058     14056     14054     14057     14056     14054     14058
     14057     14054     14058     14058     14059     14060     14058     14059     14061
     14058     14059     14062     14059     14062     14063     14059     14062     14064
     14059     14062     14070     14060     14059     14061     14060     14059     14062
     14061     14059     14062     14062     14064     14065     14062     14070     14071
     14062     14070     14072     14062     14070     14073     14063     14062     14064
     14063     14062     14070     14064     14062     14070     14064     14065     14066
     14064     14065     14067     14065     14067     14068     14065     14067     14069
     14065     14067     14079     14066     14065     14067     14067     14079     14080
     14067     14079     14081     14067     14079     14082     14068     14067     14069
     14068     14067     14079     14069     14067     14079     14070     14073     14074
     14071     14070     14072     14071     14070     14073     14072     14070     14073
     14073     14074     14075     14073     14074     14076     14074     14076     14077
     14074     14076     14078     14074     14076     14126     14075     14074     14076
     14076     14126     14127     14076     14126     14128     14076     14126     14129
     14077     14076     14078     14077     14076     14126     14078     14076     14126
     14079     14082     14083     14079     14082     14084     14079     14082     14085
     14080     14079     14081     14080     14079     14082     14081     14079     14082
     14082     14085     14086     14082     14085     14087     14082     14085     14088
     14083     14082     14084     14083     14082     14085     14084     14082     14085
     14085     14088     14089     14085     14088     14090     14085     14088     14091
     14086     14085     14087     14086     14085     14088     14087     14085     14088
     14088     14091     14092     14088     14091     14093     14088     14091     14094
     14089     14088     14090     14089     14088     14091     14090     14088     14091
     14091     14094     14095     14091     14094     14096     14091     14094     14097
     14092     14091     14093     14092     14091     14094     14093     14091     14094
     14094     14097     14098     14094     14097     14099     14095     14094     14096
     14095     14094     14097     14096     14094     14097     14097     14099     14100
     14097     14099     14101     14098     14097     14099     14099     14101     14102
     14099     14101     14103     14099     14101     14104     14100     14099     14101
     14101     14104     14105     14101     14104     14106     14101     14104     14107
     14102     14101     14103     14102     14101     14104     14103     14101     14104
     14104     14107     14108     14104     14107     14109     14104     14107     14110
     14105     14104     14106     14105     14104     14107     14106     14104     14107
     14107     14110     14111     14107     14110     14112     14107     14110     14113
     14108     14107     14109     14108     14107     14110     14109     14107     14110
     14110     14113     14114     14110     14113     14115     14110     14113     14116
     14111     14110     14112     14111     14110     14113     14112     14110     14113
     14113     14116     14117     14113     14116     14118     14113     14116     14119
     14114     14113     14115     14114     14113     14116     14115     14113     14116
     14116     14119     14120     14116     14119     14121     14116     14119     14122
     14117     14116     14118     14117     14116     14119     14118     14116     14119
     14119     14122     14123     14119     14122     14124     14119     14122     14125
     14120     14119     14121     14120     14119     14122     14121     14119     14122
     14123     14122     14124     14123     14122     14125     14124     14122     14125
     14126     14129     14130     14126     14129     14131     14126     14129     14132
     14127     14126     14128     14127     14126     14129     14128     14126     14129
     14129     14132     14133     14129     14132     14134     14129     14132     14135
     14130     14129     14131     14130     14129     14132     14131     14129     14132
     14132     14135     14136     14132     14135     14137     14132     14135     14138
     14133     14132     14134     14133     14132     14135     14134     14132     14135
     14135     14138     14139     14135     14138     14140     14135     14138     14141
     14136     14135     14137     14136     14135     14138     14137     14135     14138
     14138     14141     14142     14138     14141     14143     14138     14141     14144
     14139     14138     14140     14139     14138     14141     14140     14138     14141
     14141     14144     14145     14141     14144     14146     14141     14144     14147
     14142     14141     14143     14142     14141     14144     14143     14141     14144
     14144     14147     14148     14144     14147     14149     14144     14147     14150
     14145     14144     14146     14145     14144     14147     14146     14144     14147
     14147     14150     14151     14147     14150     14152     14147     14150     14153
     14148     14147     14149     14148     14147     14150     14149     14147     14150
     14150     14153     14154     14150     14153     14155     14150     14153     14156
     14151     14150     14152     14151     14150     14153     14152     14150     14153
     14153     14156     14157     14153     14156     14158     14153     14156     14159
     14154     14153     14155     14154     14153     14156     14155     14153     14156
     14156     14159     14160     14156     14159     14161     14156     14159     14162
     14157     14156     14158     14157     14156     14159     14158     14156     14159
     14159     14162     14163     14159     14162     14164     14159     14162     14165
     14160     14159     14161     14160     14159     14162     14161     14159     14162
     14162     14165     14166     14162     14165     14167     14162     14165     14168
     14163     14162     14164     14163     14162     14165     14164     14162     14165
     14165     14168     14169     14165     14168     14170     14165     14168     14171
     14166     14165     14167     14166     14165     14168     14167     14165     14168
     14168     14171     14172     14168     14171     14173     14168     14171     14174
     14169     14168     14170     14169     14168     14171     14170     14168     14171
     14172     14171     14173     14172     14171     14174     14173     14171     14174
     14175     14179     14180     14175     14179     14181     14175     14179     14184
     14176     14175     14177     14176     14175     14178     14176     14175     14179
     14177     14175     14178     14177     14175     14179     14178     14175     14179
     14179     14181     14182     14179     14181     14183     14179     14184     14185
     14179     14184     14186     14179     14184     14190     14180     14179     14181
     14180     14179     14184     14181     14179     14184     14182     14181     14183
     14184     14190     14187     14185     14184     14186     14185     14184     14190
     14186     14184     14190     14187     14191     14192     14188     14187     14189
     14188     14187     14190     14188     14187     14191     14189     14187     14190
     14189     14187     14191     14190     14187     14191     14191     14192     14193
     14191     14192     14194     14191     14192     14195     14192     14195     14196
     14192     14195     14197     14192     14195     14203     14193     14192     14194
     14193     14192     14195     14194     14192     14195     14195     14197     14198
     14195     14203     14204     14195     14203     14205     14195     14203     14206
     14196     14195     14197     14196     14195     14203     14197     14195     14203
     14197     14198     14199     14197     14198     14200     14198     14200     14201
     14198     14200     14202     14198     14200     14212     14199     14198     14200
     14200     14212     14213     14200     14212     14214     14200     14212     14215
     14201     14200     14202     14201     14200     14212     14202     14200     14212
     14203     14206     14207     14204     14203     14205     14204     14203     14206
     14205     14203     14206     14206     14207     14208     14206     14207     14209
     14207     14209     14210     14207     14209     14211     14207     14209     14259
     14208     14207     14209     14209     14259     14260     14209     14259     14261
     14209     14259     14262     14210     14209     14211     14210     14209     14259
     14211     14209     14259     14212     14215     14216     14212     14215     14217
     14212     14215     14218     14213     14212     14214     14213     14212     14215
     14214     14212     14215     14215     14218     14219     14215     14218     14220
     14216     14215     14217     14216     14215     14218     14217     14215     14218
     14218     14220     14221     14218     14220     14222     14219     14218     14220
     14220     14222     14223     14220     14222     14224     14220     14222     14225
     14221     14220     14222     14222     14225     14226     14222     14225     14227
     14223     14222     14224     14223     14222     14225     14224     14222     14225
     14225     14227     14228     14225     14227     14229     14226     14225     14227
     14227     14229     14230     14227     14229     14231     14227     14229     14232
     14228     14227     14229     14229     14232     14233     14229     14232     14234
     14230     14229     14231     14230     14229     14232     14231     14229     14232
     14232     14234     14235     14232     14234     14236     14233     14232     14234
     14234     14236     14237     14234     14236     14238     14234     14236     14239
     14235     14234     14236     14236     14239     14240     14236     14239     14241
     14237     14236     14238     14237     14236     14239     14238     14236     14239
     14239     14241     14242     14239     14241     14243     14240     14239     14241
     14241     14243     14244     14241     14243     14245     14241     14243     14246
     14242     14241     14243     14243     14246     14247     14243     14246     14248
     14243     14246     14249     14244     14243     14245     14244     14243     14246
     14245     14243     14246     14246     14249     14250     14246     14249     14251
     14246     14249     14252     14247     14246     14248     14247     14246     14249
     14248     14246     14249     14249     14252     14253     14249     14252     14254
     14249     14252     14255     14250     14249     14251     14250     14249     14252
     14251     14249     14252     14252     14255     14256     14252     14255     14257
     14252     14255     14258     14253     14252     14254     14253     14252     14255
     14254     14252     14255     14256     14255     14257     14256     14255     14258
     14257     14255     14258     14259     14262     14263     14259     14262     14264
     14259     14262     14265     14260     14259     14261     14260     14259     14262
     14261     14259     14262     14262     14265     14266     14262     14265     14267
     14262     14265     14268     14263     14262     14264     14263     14262     14265
     14264     14262     14265     14265     14268     14269     14265     14268     14270
     14265     14268     14271     14266     14265     14267     14266     14265     14268
     14267     14265     14268     14268     14271     14272     14268     14271     14273
     14268     14271     14274     14269     14268     14270     14269     14268     14271
     14270     14268     14271     14271     14274     14275     14271     14274     14276
     14271     14274     14277     14272     14271     14273     14272     14271     14274
     14273     14271     14274     14274     14277     14278     14274     14277     14279
     14274     14277     14280     14275     14274     14276     14275     14274     14277
     14276     14274     14277     14277     14280     14281     14277     14280     14282
     14277     14280     14283     14278     14277     14279     14278     14277     14280
     14279     14277     14280     14280     14283     14284     14280     14283     14285
     14280     14283     14286     14281     14280     14282     14281     14280     14283
     14282     14280     14283     14283     14286     14287     14283     14286     14288
     14283     14286     14289     14284     14283     14285     14284     14283     14286
     14285     14283     14286     14286     14289     14290     14286     14289     14291
     14286     14289     14292     14287     14286     14288     14287     14286     14289
     14288     14286     14289     14289     14292     14293     14289     14292     14294
     14289     14292     14295     14290     14289     14291     14290     14289     14292
     14291     14289     14292     14292     14295     14296     14292     14295     14297
     14292     14295     14298     14293     14292     14294     14293     14292     14295
     14294     14292     14295     14295     14298     14299     14295     14298     14300
     14295     14298     14301     14296     14295     14297     14296     14295     14298
     14297     14295     14298     14298     14301     14302     14298     14301     14303
     14298     14301     14304     14299     14298     14300     14299     14298     14301
     14300     14298     14301     14301     14304     14305     14301     14304     14306
     14301     14304     14307     14302     14301     14303     14302     14301     14304
     14303     14301     14304     14305     14304     14306     14305     14304     14307
     14306     14304     14307     14308     14309     14310     14308     14309     14311
     14308     14309     14312     14308     14313     14314     14308     14313     14315
     14308     14313     14316     14308     14317     14318     14308     14317     14319
     14308     14317     14320     14308     14321     14322     14308     14321     14323
     14308     14321     14324     14309     14308     14313     14309     14308     14317
     14309     14308     14321     14310     14309     14311     14310     14309     14312
     14311     14309     14312     14313     14308     14317     14313     14308     14321
     14314     14313     14315     14314     14313     14316     14315     14313     14316
     14317     14308     14321     14318     14317     14319     14318     14317     14320
     14319     14317     14320     14321     14324     14325     14321     14324     14326
     14321     14324     14331     14322     14321     14323     14322     14321     14324
     14323     14321     14324     14324     14331     14327     14325     14324     14326
     14325     14324     14331     14326     14324     14331     14327     14330     14332
     14328     14327     14329     14328     14327     14330     14328     14327     14331
     14329     14327     14330     14329     14327     14331     14330     14327     14331
     14330     14332     14333     14330     14332     14334     14330     14332     14337
     14332     14337     14335     14332     14337     14338     14332     14337     14339
     14333     14332     14334     14333     14332     14337     14334     14332     14337
     14335     14337     14338     14335     14337     14339     14335     14387     14388
     14335     14387     14389     14336     14335     14337     14336     14335     14387
     14337     14335     14387     14337     14339     14340     14337     14339     14341
     14337     14339     14343     14338     14337     14339     14339     14341     14342
     14339     14343     14344     14339     14343     14345     14340     14339     14341
     14340     14339     14343     14341     14339     14343     14343     14345     14346
     14343     14345     14347     14344     14343     14345     14345     14347     14348
     14345     14347     14349     14345     14347     14350     14346     14345     14347
     14347     14350     14351     14347     14350     14352     14347     14350     14353
     14348     14347     14349     14348     14347     14350     14349     14347     14350
     14350     14353     14354     14350     14353     14355     14350     14353     14356
     14351     14350     14352     14351     14350     14353     14352     14350     14353
     14353     14356     14357     14353     14356     14358     14353     14356     14359
     14354     14353     14355     14354     14353     14356     14355     14353     14356
     14356     14359     14360     14356     14359     14361     14356     14359     14362
     14357     14356     14358     14357     14356     14359     14358     14356     14359
     14359     14362     14363     14359     14362     14364     14359     14362     14365
     14360     14359     14361     14360     14359     14362     14361     14359     14362
     14362     14365     14366     14362     14365     14367     14362     14365     14368
     14363     14362     14364     14363     14362     14365     14364     14362     14365
     14365     14368     14369     14365     14368     14370     14365     14368     14371
     14366     14365     14367     14366     14365     14368     14367     14365     14368
     14368     14371     14372     14368     14371     14373     14368     14371     14374
     14369     14368     14370     14369     14368     14371     14370     14368     14371
     14371     14374     14375     14371     14374     14376     14371     14374     14377
     14372     14371     14373     14372     14371     14374     14373     14371     14374
     14374     14377     14378     14374     14377     14379     14374     14377     14380
     14375     14374     14376     14375     14374     14377     14376     14374     14377
     14377     14380     14381     14377     14380     14382     14377     14380     14383
     14378     14377     14379     14378     14377     14380     14379     14377     14380
     14380     14383     14384     14380     14383     14385     14380     14383     14386
     14381     14380     14382     14381     14380     14383     14382     14380     14383
     14384     14383     14385     14384     14383     14386     14385     14383     14386
     14387     14389     14390     14387     14389     14391     14387     14389     14392
     14388     14387     14389     14389     14392     14393     14389     14392     14394
     14389     14392     14395     14390     14389     14391     14390     14389     14392
     14391     14389     14392     14392     14395     14396     14392     14395     14397
     14392     14395     14398     14393     14392     14394     14393     14392     14395
     14394     14392     14395     14395     14398     14399     14395     14398     14400
     14395     14398     14401     14396     14395     14397     14396     14395     14398
     14397     14395     14398     14398     14401     14402     14398     14401     14403
     14398     14401     14404     14399     14398     14400     14399     14398     14401
     14400     14398     14401     14401     14404     14405     14401     14404     14406
     14401     14404     14407     14402     14401     14403     14402     14401     14404
     14403     14401     14404     14404     14407     14408     14404     14407     14409
     14404     14407     14410     14405     14404     14406     14405     14404     14407
     14406     14404     14407     14407     14410     14411     14407     14410     14412
     14408     14407     14409     14408     14407     14410     14409     14407     14410
     14410     14412     14413     14410     14412     14414     14411     14410     14412
     14412     14414     14415     14412     14414     14416     14412     14414     14417
     14413     14412     14414     14414     14417     14418     14414     14417     14419
     14414     14417     14420     14415     14414     14416     14415     14414     14417
     14416     14414     14417     14417     14420     14421     14417     14420     14422
     14417     14420     14423     14418     14417     14419     14418     14417     14420
     14419     14417     14420     14420     14423     14424     14420     14423     14425
     14420     14423     14426     14421     14420     14422     14421     14420     14423
     14422     14420     14423     14423     14426     14427     14423     14426     14428
     14423     14426     14429     14424     14423     14425     14424     14423     14426
     14425     14423     14426     14426     14429     14430     14426     14429     14431
     14426     14429     14432     14427     14426     14428     14427     14426     14429
     14428     14426     14429     14429     14432     14433     14429     14432     14434
     14429     14432     14435     14430     14429     14431     14430     14429     14432
     14431     14429     14432     14432     14435     14436     14432     14435     14437
     14432     14435     14438     14433     14432     14434     14433     14432     14435
     14434     14432     14435     14436     14435     14437     14436     14435     14438
     14437     14435     14438     14439     14440     14441     14439     14440     14442
     14439     14440     14455     14439     14443     14444     14439     14443     14445
     14439     14443     14446     14439     14447     14448     14439     14447     14449
     14439     14447     14450     14439     14451     14452     14439     14451     14453
     14439     14451     14454     14440     14439     14443     14440     14439     14447
     14440     14439     14451     14440     14455     14456     14440     14455     14457
     14440     14455     14461     14441     14440     14442     14441     14440     14455
     14442     14440     14455     14443     14439     14447     14443     14439     14451
     14444     14443     14445     14444     14443     14446     14445     14443     14446
     14447     14439     14451     14448     14447     14449     14448     14447     14450
     14449     14447     14450     14452     14451     14453     14452     14451     14454
     14453     14451     14454     14455     14461     14458     14456     14455     14457
     14456     14455     14461     14457     14455     14461     14458     14462     14463
     14459     14458     14460     14459     14458     14461     14459     14458     14462
     14460     14458     14461     14460     14458     14462     14461     14458     14462
     14462     14463     14464     14462     14463     14465     14462     14463     14466
     14463     14466     14467     14463     14466     14468     14463     14466     14474
     14464     14463     14465     14464     14463     14466     14465     14463     14466
     14466     14468     14469     14466     14474     14475     14466     14474     14476
     14466     14474     14477     14467     14466     14468     14467     14466     14474
     14468     14466     14474     14468     14469     14470     14468     14469     14471
     14469     14471     14472     14469     14471     14473     14469     14471     14483
     14470     14469     14471     14471     14483     14484     14471     14483     14485
     14471     14483     14486     14472     14471     14473     14472     14471     14483
     14473     14471     14483     14474     14477     14478     14475     14474     14476
     14475     14474     14477     14476     14474     14477     14477     14478     14479
     14477     14478     14480     14478     14480     14481     14478     14480     14482
     14478     14480     14530     14479     14478     14480     14480     14530     14531
     14480     14530     14532     14480     14530     14533     14481     14480     14482
     14481     14480     14530     14482     14480     14530     14483     14486     14487
     14483     14486     14488     14483     14486     14489     14484     14483     14485
     14484     14483     14486     14485     14483     14486     14486     14489     14490
     14486     14489     14491     14487     14486     14488     14487     14486     14489
     14488     14486     14489     14489     14491     14492     14489     14491     14493
     14490     14489     14491     14491     14493     14494     14491     14493     14495
     14491     14493     14496     14492     14491     14493     14493     14496     14497
     14493     14496     14498     14494     14493     14495     14494     14493     14496
     14495     14493     14496     14496     14498     14499     14496     14498     14500
     14497     14496     14498     14498     14500     14501     14498     14500     14502
     14498     14500     14503     14499     14498     14500     14500     14503     14504
     14500     14503     14505     14501     14500     14502     14501     14500     14503
     14502     14500     14503     14503     14505     14506     14503     14505     14507
     14504     14503     14505     14505     14507     14508     14505     14507     14509
     14505     14507     14510     14506     14505     14507     14507     14510     14511
     14507     14510     14512     14508     14507     14509     14508     14507     14510
     14509     14507     14510     14510     14512     14513     14510     14512     14514
     14511     14510     14512     14512     14514     14515     14512     14514     14516
     14512     14514     14517     14513     14512     14514     14514     14517     14518
     14514     14517     14519     14514     14517     14520     14515     14514     14516
     14515     14514     14517     14516     14514     14517     14517     14520     14521
     14517     14520     14522     14517     14520     14523     14518     14517     14519
     14518     14517     14520     14519     14517     14520     14520     14523     14524
     14520     14523     14525     14520     14523     14526     14521     14520     14522
     14521     14520     14523     14522     14520     14523     14523     14526     14527
     14523     14526     14528     14523     14526     14529     14524     14523     14525
     14524     14523     14526     14525     14523     14526     14527     14526     14528
     14527     14526     14529     14528     14526     14529     14530     14533     14534
     14530     14533     14535     14530     14533     14536     14531     14530     14532
     14531     14530     14533     14532     14530     14533     14533     14536     14537
     14533     14536     14538     14533     14536     14539     14534     14533     14535
     14534     14533     14536     14535     14533     14536     14536     14539     14540
     14536     14539     14541     14536     14539     14542     14537     14536     14538
     14537     14536     14539     14538     14536     14539     14539     14542     14543
     14539     14542     14544     14539     14542     14545     14540     14539     14541
     14540     14539     14542     14541     14539     14542     14542     14545     14546
     14542     14545     14547     14542     14545     14548     14543     14542     14544
     14543     14542     14545     14544     14542     14545     14545     14548     14549
     14545     14548     14550     14545     14548     14551     14546     14545     14547
     14546     14545     14548     14547     14545     14548     14548     14551     14552
     14548     14551     14553     14548     14551     14554     14549     14548     14550
     14549     14548     14551     14550     14548     14551     14551     14554     14555
     14551     14554     14556     14551     14554     14557     14552     14551     14553
     14552     14551     14554     14553     14551     14554     14554     14557     14558
     14554     14557     14559     14554     14557     14560     14555     14554     14556
     14555     14554     14557     14556     14554     14557     14557     14560     14561
     14557     14560     14562     14557     14560     14563     14558     14557     14559
     14558     14557     14560     14559     14557     14560     14560     14563     14564
     14560     14563     14565     14560     14563     14566     14561     14560     14562
     14561     14560     14563     14562     14560     14563     14563     14566     14567
     14563     14566     14568     14563     14566     14569     14564     14563     14565
     14564     14563     14566     14565     14563     14566     14566     14569     14570
     14566     14569     14571     14566     14569     14572     14567     14566     14568
     14567     14566     14569     14568     14566     14569     14569     14572     14573
     14569     14572     14574     14569     14572     14575     14570     14569     14571
     14570     14569     14572     14571     14569     14572     14572     14575     14576
     14572     14575     14577     14572     14575     14578     14573     14572     14574
     14573     14572     14575     14574     14572     14575     14576     14575     14577
     14576     14575     14578     14577     14575     14578     14579     14581     14582
     14579     14583     14584     14579     14583     14585     14579     14583     14586
     14579     14625     14622     14579     14625     14626     14579     14625     14627
     14580     14579     14581     14580     14579     14583     14580     14579     14625
     14581     14579     14583     14581     14579     14625     14583     14579     14625
     14583     14586     14587     14583     14586     14617     14584     14583     14585
     14584     14583     14586     14585     14583     14586     14586     14587     14588
     14586     14587     14589     14586     14617     14615     14586     14617     14618
     14586     14617     14622     14587     14586     14617     14587     14589     14590
     14587     14589     14591     14587     14589     14592     14588     14587     14589
     14589     14592     14593     14589     14592     14594     14589     14592     14615
     14590     14589     14591     14590     14589     14592     14591     14589     14592
     14592     14594     14595     14592     14594     14596     14592     14594     14604
     14592     14615     14612     14592     14615     14616     14592     14615     14617
     14593     14592     14594     14593     14592     14615     14594     14592     14615
     14594     14596     14597     14594     14596     14598     14594     14596     14599
     14594     14604     14602     14594     14604     14605     14594     14604     14609
     14595     14594     14596     14595     14594     14604     14596     14594     14604
     14596     14599     14600     14596     14599     14601     14596     14599     14602
     14597     14596     14598     14597     14596     14599     14598     14596     14599
     14599     14602     14603     14599     14602     14604     14599     14602     14628
     14600     14599     14601     14600     14599     14602     14601     14599     14602
     14602     14604     14605     14602     14604     14609     14602     14628     14629
     14602     14628     14630     14602     14628     14634     14603     14602     14604
     14603     14602     14628     14604     14602     14628     14604     14605     14606
     14604     14605     14607     14604     14605     14608     14604     14609     14610
     14604     14609     14611     14604     14609     14612     14605     14604     14609
     14606     14605     14607     14606     14605     14608     14607     14605     14608
     14609     14612     14613     14609     14612     14614     14609     14612     14615
     14610     14609     14611     14610     14609     14612     14611     14609     14612
     14612     14615     14616     14612     14615     14617     14613     14612     14614
     14613     14612     14615     14614     14612     14615     14615     14617     14618
     14615     14617     14622     14616     14615     14617     14617     14618     14619
     14617     14618     14620     14617     14618     14621     14617     14622     14623
     14617     14622     14624     14617     14622     14625     14618     14617     14622
     14619     14618     14620     14619     14618     14621     14620     14618     14621
     14622     14625     14626     14622     14625     14627     14623     14622     14624
     14623     14622     14625     14624     14622     14625     14626     14625     14627
     14628     14630     14631     14628     14630     14632     14628     14630     14633
     14628     14634     14635     14628     14634     14636     14628     14634     14637
     14629     14628     14630     14629     14628     14634     14630     14628     14634
     14631     14630     14632     14631     14630     14633     14632     14630     14633
     14634     14637     14638     14634     14637     14639     14634     14637     14640
     14635     14634     14636     14635     14634     14637     14636     14634     14637
     14637     14640     14641     14637     14640     14642     14637     14640     14643
     14638     14637     14639     14638     14637     14640     14639     14637     14640
     14640     14643     14644     14640     14643     14645     14640     14643     14649
     14641     14640     14642     14641     14640     14643     14642     14640     14643
     14643     14645     14646     14643     14645     14647     14643     14645     14648
     14643     14649     14650     14643     14649     14651     14643     14649     14652
     14644     14643     14645     14644     14643     14649     14645     14643     14649
     14646     14645     14647     14646     14645     14648     14647     14645     14648
     14650     14649     14651     14650     14649     14652     14651     14649     14652
     14653     14657     14658     14653     14657     14659     14653     14657     14662
     14654     14653     14655     14654     14653     14656     14654     14653     14657
     14655     14653     14656     14655     14653     14657     14656     14653     14657
     14657     14659     14660     14657     14659     14661     14657     14662     14663
     14657     14662     14664     14657     14662     14668     14658     14657     14659
     14658     14657     14662     14659     14657     14662     14660     14659     14661
     14662     14668     14665     14663     14662     14664     14663     14662     14668
     14664     14662     14668     14665     14669     14670     14666     14665     14667
     14666     14665     14668     14666     14665     14669     14667     14665     14668
     14667     14665     14669     14668     14665     14669     14669     14670     14671
     14669     14670     14672     14669     14670     14673     14670     14673     14674
     14670     14673     14675     14670     14673     14681     14671     14670     14672
     14671     14670     14673     14672     14670     14673     14673     14675     14676
     14673     14681     14682     14673     14681     14683     14673     14681     14684
     14674     14673     14675     14674     14673     14681     14675     14673     14681
     14675     14676     14677     14675     14676     14678     14676     14678     14679
     14676     14678     14680     14676     14678     14690     14677     14676     14678
     14678     14690     14691     14678     14690     14692     14678     14690     14693
     14679     14678     14680     14679     14678     14690     14680     14678     14690
     14681     14684     14685     14682     14681     14683     14682     14681     14684
     14683     14681     14684     14684     14685     14686     14684     14685     14687
     14685     14687     14688     14685     14687     14689     14685     14687     14737
     14686     14685     14687     14687     14737     14738     14687     14737     14739
     14687     14737     14740     14688     14687     14689     14688     14687     14737
     14689     14687     14737     14690     14693     14694     14690     14693     14695
     14690     14693     14696     14691     14690     14692     14691     14690     14693
     14692     14690     14693     14693     14696     14697     14693     14696     14698
     14694     14693     14695     14694     14693     14696     14695     14693     14696
     14696     14698     14699     14696     14698     14700     14697     14696     14698
     14698     14700     14701     14698     14700     14702     14698     14700     14703
     14699     14698     14700     14700     14703     14704     14700     14703     14705
     14701     14700     14702     14701     14700     14703     14702     14700     14703
     14703     14705     14706     14703     14705     14707     14704     14703     14705
     14705     14707     14708     14705     14707     14709     14705     14707     14710
     14706     14705     14707     14707     14710     14711     14707     14710     14712
     14708     14707     14709     14708     14707     14710     14709     14707     14710
     14710     14712     14713     14710     14712     14714     14711     14710     14712
     14712     14714     14715     14712     14714     14716     14712     14714     14717
     14713     14712     14714     14714     14717     14718     14714     14717     14719
     14715     14714     14716     14715     14714     14717     14716     14714     14717
     14717     14719     14720     14717     14719     14721     14718     14717     14719
     14719     14721     14722     14719     14721     14723     14719     14721     14724
     14720     14719     14721     14721     14724     14725     14721     14724     14726
     14721     14724     14727     14722     14721     14723     14722     14721     14724
     14723     14721     14724     14724     14727     14728     14724     14727     14729
     14724     14727     14730     14725     14724     14726     14725     14724     14727
     14726     14724     14727     14727     14730     14731     14727     14730     14732
     14727     14730     14733     14728     14727     14729     14728     14727     14730
     14729     14727     14730     14730     14733     14734     14730     14733     14735
     14730     14733     14736     14731     14730     14732     14731     14730     14733
     14732     14730     14733     14734     14733     14735     14734     14733     14736
     14735     14733     14736     14737     14740     14741     14737     14740     14742
     14737     14740     14743     14738     14737     14739     14738     14737     14740
     14739     14737     14740     14740     14743     14744     14740     14743     14745
     14740     14743     14746     14741     14740     14742     14741     14740     14743
     14742     14740     14743     14743     14746     14747     14743     14746     14748
     14743     14746     14749     14744     14743     14745     14744     14743     14746
     14745     14743     14746     14746     14749     14750     14746     14749     14751
     14746     14749     14752     14747     14746     14748     14747     14746     14749
     14748     14746     14749     14749     14752     14753     14749     14752     14754
     14749     14752     14755     14750     14749     14751     14750     14749     14752
     14751     14749     14752     14752     14755     14756     14752     14755     14757
     14752     14755     14758     14753     14752     14754     14753     14752     14755
     14754     14752     14755     14755     14758     14759     14755     14758     14760
     14755     14758     14761     14756     14755     14757     14756     14755     14758
     14757     14755     14758     14758     14761     14762     14758     14761     14763
     14758     14761     14764     14759     14758     14760     14759     14758     14761
     14760     14758     14761     14761     14764     14765     14761     14764     14766
     14761     14764     14767     14762     14761     14763     14762     14761     14764
     14763     14761     14764     14764     14767     14768     14764     14767     14769
     14764     14767     14770     14765     14764     14766     14765     14764     14767
     14766     14764     14767     14767     14770     14771     14767     14770     14772
     14767     14770     14773     14768     14767     14769     14768     14767     14770
     14769     14767     14770     14770     14773     14774     14770     14773     14775
     14770     14773     14776     14771     14770     14772     14771     14770     14773
     14772     14770     14773     14773     14776     14777     14773     14776     14778
     14773     14776     14779     14774     14773     14775     14774     14773     14776
     14775     14773     14776     14776     14779     14780     14776     14779     14781
     14776     14779     14782     14777     14776     14778     14777     14776     14779
     14778     14776     14779     14779     14782     14783     14779     14782     14784
     14779     14782     14785     14780     14779     14781     14780     14779     14782
     14781     14779     14782     14783     14782     14784     14783     14782     14785
     14784     14782     14785     14786     14788     14789     14786     14790     14791
     14786     14790     14792     14786     14790     14793     14786     14832     14829
     14786     14832     14833     14786     14832     14834     14787     14786     14788
     14787     14786     14790     14787     14786     14832     14788     14786     14790
     14788     14786     14832     14790     14786     14832     14790     14793     14794
     14790     14793     14824     14791     14790     14792     14791     14790     14793
     14792     14790     14793     14793     14794     14795     14793     14794     14796
     14793     14824     14822     14793     14824     14825     14793     14824     14829
     14794     14793     14824     14794     14796     14797     14794     14796     14798
     14794     14796     14799     14795     14794     14796     14796     14799     14800
     14796     14799     14801     14796     14799     14822     14797     14796     14798
     14797     14796     14799     14798     14796     14799     14799     14801     14802
     14799     14801     14803     14799     14801     14811     14799     14822     14819
     14799     14822     14823     14799     14822     14824     14800     14799     14801
     14800     14799     14822     14801     14799     14822     14801     14803     14804
     14801     14803     14805     14801     14803     14806     14801     14811     14809
     14801     14811     14812     14801     14811     14816     14802     14801     14803
     14802     14801     14811     14803     14801     14811     14803     14806     14807
     14803     14806     14808     14803     14806     14809     14804     14803     14805
     14804     14803     14806     14805     14803     14806     14806     14809     14810
     14806     14809     14811     14806     14809     14835     14807     14806     14808
     14807     14806     14809     14808     14806     14809     14809     14811     14812
     14809     14811     14816     14809     14835     14836     14809     14835     14837
     14809     14835     14841     14810     14809     14811     14810     14809     14835
     14811     14809     14835     14811     14812     14813     14811     14812     14814
     14811     14812     14815     14811     14816     14817     14811     14816     14818
     14811     14816     14819     14812     14811     14816     14813     14812     14814
     14813     14812     14815     14814     14812     14815     14816     14819     14820
     14816     14819     14821     14816     14819     14822     14817     14816     14818
     14817     14816     14819     14818     14816     14819     14819     14822     14823
     14819     14822     14824     14820     14819     14821     14820     14819     14822
     14821     14819     14822     14822     14824     14825     14822     14824     14829
     14823     14822     14824     14824     14825     14826     14824     14825     14827
     14824     14825     14828     14824     14829     14830     14824     14829     14831
     14824     14829     14832     14825     14824     14829     14826     14825     14827
     14826     14825     14828     14827     14825     14828     14829     14832     14833
     14829     14832     14834     14830     14829     14831     14830     14829     14832
     14831     14829     14832     14833     14832     14834     14835     14837     14838
     14835     14837     14839     14835     14837     14840     14835     14841     14842
     14835     14841     14843     14835     14841     14844     14836     14835     14837
     14836     14835     14841     14837     14835     14841     14838     14837     14839
     14838     14837     14840     14839     14837     14840     14841     14844     14845
     14841     14844     14846     14841     14844     14847     14842     14841     14843
     14842     14841     14844     14843     14841     14844     14844     14847     14848
     14844     14847     14849     14844     14847     14850     14845     14844     14846
     14845     14844     14847     14846     14844     14847     14847     14850     14851
     14847     14850     14852     14847     14850     14856     14848     14847     14849
     14848     14847     14850     14849     14847     14850     14850     14852     14853
     14850     14852     14854     14850     14852     14855     14850     14856     14857
     14850     14856     14858     14850     14856     14859     14851     14850     14852
     14851     14850     14856     14852     14850     14856     14853     14852     14854
     14853     14852     14855     14854     14852     14855     14857     14856     14858
     14857     14856     14859     14858     14856     14859     14860     14864     14865
     14860     14864     14866     14860     14864     14867     14861     14860     14862
     14861     14860     14863     14861     14860     14864     14862     14860     14863
     14862     14860     14864     14863     14860     14864     14864     14867     14868
     14864     14867     14869     14864     14867     14873     14865     14864     14866
     14865     14864     14867     14866     14864     14867     14867     14873     14870
     14868     14867     14869     14868     14867     14873     14869     14867     14873
     14870     14874     14875     14871     14870     14872     14871     14870     14873
     14871     14870     14874     14872     14870     14873     14872     14870     14874
     14873     14870     14874     14874     14875     14876     14874     14875     14877
     14874     14875     14878     14875     14878     14879     14875     14878     14880
     14875     14878     14886     14876     14875     14877     14876     14875     14878
     14877     14875     14878     14878     14880     14881     14878     14886     14887
     14878     14886     14888     14878     14886     14889     14879     14878     14880
     14879     14878     14886     14880     14878     14886     14880     14881     14882
     14880     14881     14883     14881     14883     14884     14881     14883     14885
     14881     14883     14895     14882     14881     14883     14883     14895     14896
     14883     14895     14897     14883     14895     14898     14884     14883     14885
     14884     14883     14895     14885     14883     14895     14886     14889     14890
     14887     14886     14888     14887     14886     14889     14888     14886     14889
     14889     14890     14891     14889     14890     14892     14890     14892     14893
     14890     14892     14894     14890     14892     14942     14891     14890     14892
     14892     14942     14943     14892     14942     14944     14892     14942     14945
     14893     14892     14894     14893     14892     14942     14894     14892     14942
     14895     14898     14899     14895     14898     14900     14895     14898     14901
     14896     14895     14897     14896     14895     14898     14897     14895     14898
     14898     14901     14902     14898     14901     14903     14898     14901     14904
     14899     14898     14900     14899     14898     14901     14900     14898     14901
     14901     14904     14905     14901     14904     14906     14901     14904     14907
     14902     14901     14903     14902     14901     14904     14903     14901     14904
     14904     14907     14908     14904     14907     14909     14904     14907     14910
     14905     14904     14906     14905     14904     14907     14906     14904     14907
     14907     14910     14911     14907     14910     14912     14907     14910     14913
     14908     14907     14909     14908     14907     14910     14909     14907     14910
     14910     14913     14914     14910     14913     14915     14911     14910     14912
     14911     14910     14913     14912     14910     14913     14913     14915     14916
     14913     14915     14917     14914     14913     14915     14915     14917     14918
     14915     14917     14919     14915     14917     14920     14916     14915     14917
     14917     14920     14921     14917     14920     14922     14917     14920     14923
     14918     14917     14919     14918     14917     14920     14919     14917     14920
     14920     14923     14924     14920     14923     14925     14920     14923     14926
     14921     14920     14922     14921     14920     14923     14922     14920     14923
     14923     14926     14927     14923     14926     14928     14923     14926     14929
     14924     14923     14925     14924     14923     14926     14925     14923     14926
     14926     14929     14930     14926     14929     14931     14926     14929     14932
     14927     14926     14928     14927     14926     14929     14928     14926     14929
     14929     14932     14933     14929     14932     14934     14929     14932     14935
     14930     14929     14931     14930     14929     14932     14931     14929     14932
     14932     14935     14936     14932     14935     14937     14932     14935     14938
     14933     14932     14934     14933     14932     14935     14934     14932     14935
     14935     14938     14939     14935     14938     14940     14935     14938     14941
     14936     14935     14937     14936     14935     14938     14937     14935     14938
     14939     14938     14940     14939     14938     14941     14940     14938     14941
     14942     14945     14946     14942     14945     14947     14942     14945     14948
     14943     14942     14944     14943     14942     14945     14944     14942     14945
     14945     14948     14949     14945     14948     14950     14945     14948     14951
     14946     14945     14947     14946     14945     14948     14947     14945     14948
     14948     14951     14952     14948     14951     14953     14948     14951     14954
     14949     14948     14950     14949     14948     14951     14950     14948     14951
     14951     14954     14955     14951     14954     14956     14951     14954     14957
     14952     14951     14953     14952     14951     14954     14953     14951     14954
     14954     14957     14958     14954     14957     14959     14954     14957     14960
     14955     14954     14956     14955     14954     14957     14956     14954     14957
     14957     14960     14961     14957     14960     14962     14957     14960     14963
     14958     14957     14959     14958     14957     14960     14959     14957     14960
     14960     14963     14964     14960     14963     14965     14960     14963     14966
     14961     14960     14962     14961     14960     14963     14962     14960     14963
     14963     14966     14967     14963     14966     14968     14963     14966     14969
     14964     14963     14965     14964     14963     14966     14965     14963     14966
     14966     14969     14970     14966     14969     14971     14966     14969     14972
     14967     14966     14968     14967     14966     14969     14968     14966     14969
     14969     14972     14973     14969     14972     14974     14969     14972     14975
     14970     14969     14971     14970     14969     14972     14971     14969     14972
     14972     14975     14976     14972     14975     14977     14972     14975     14978
     14973     14972     14974     14973     14972     14975     14974     14972     14975
     14975     14978     14979     14975     14978     14980     14975     14978     14981
     14976     14975     14977     14976     14975     14978     14977     14975     14978
     14978     14981     14982     14978     14981     14983     14978     14981     14984
     14979     14978     14980     14979     14978     14981     14980     14978     14981
     14981     14984     14985     14981     14984     14986     14981     14984     14987
     14982     14981     14983     14982     14981     14984     14983     14981     14984
     14984     14987     14988     14984     14987     14989     14984     14987     14990
     14985     14984     14986     14985     14984     14987     14986     14984     14987
     14988     14987     14989     14988     14987     14990     14989     14987     14990
     14991     14992     14993     14991     14992     14994     14991     14992     14995
     14991     14996     14997     14991     14996     14998     14991     14996     14999
     14991     15000     15001     14991     15000     15002     14991     15000     15003
     14991     15004     15005     14991     15004     15006     14991     15004     15007
     14992     14991     14996     14992     14991     15000     14992     14991     15004
     14993     14992     14994     14993     14992     14995     14994     14992     14995
     14996     14991     15000     14996     14991     15004     14997     14996     14998
     14997     14996     14999     14998     14996     14999     15000     14991     15004
     15001     15000     15002     15001     15000     15003     15002     15000     15003
     15004     15007     15008     15004     15007     15009     15004     15007     15014
     15005     15004     15006     15005     15004     15007     15006     15004     15007
     15007     15014     15010     15008     15007     15009     15008     15007     15014
     15009     15007     15014     15010     15013     15015     15011     15010     15012
     15011     15010     15013     15011     15010     15014     15012     15010     15013
     15012     15010     15014     15013     15010     15014     15013     15015     15016
     15013     15015     15017     15013     15015     15020     15015     15020     15018
     15015     15020     15021     15015     15020     15022     15016     15015     15017
     15016     15015     15020     15017     15015     15020     15018     15020     15021
     15018     15020     15022     15018     15070     15071     15018     15070     15072
     15019     15018     15020     15019     15018     15070     15020     15018     15070
     15020     15022     15023     15020     15022     15024     15020     15022     15026
     15021     15020     15022     15022     15024     15025     15022     15026     15027
     15022     15026     15028     15023     15022     15024     15023     15022     15026
     15024     15022     15026     15026     15028     15029     15026     15028     15030
     15027     15026     15028     15028     15030     15031     15028     15030     15032
     15028     15030     15033     15029     15028     15030     15030     15033     15034
     15030     15033     15035     15030     15033     15036     15031     15030     15032
     15031     15030     15033     15032     15030     15033     15033     15036     15037
     15033     15036     15038     15033     15036     15039     15034     15033     15035
     15034     15033     15036     15035     15033     15036     15036     15039     15040
     15036     15039     15041     15036     15039     15042     15037     15036     15038
     15037     15036     15039     15038     15036     15039     15039     15042     15043
     15039     15042     15044     15039     15042     15045     15040     15039     15041
     15040     15039     15042     15041     15039     15042     15042     15045     15046
     15042     15045     15047     15042     15045     15048     15043     15042     15044
     15043     15042     15045     15044     15042     15045     15045     15048     15049
     15045     15048     15050     15045     15048     15051     15046     15045     15047
     15046     15045     15048     15047     15045     15048     15048     15051     15052
     15048     15051     15053     15048     15051     15054     15049     15048     15050
     15049     15048     15051     15050     15048     15051     15051     15054     15055
     15051     15054     15056     15051     15054     15057     15052     15051     15053
     15052     15051     15054     15053     15051     15054     15054     15057     15058
     15054     15057     15059     15054     15057     15060     15055     15054     15056
     15055     15054     15057     15056     15054     15057     15057     15060     15061
     15057     15060     15062     15057     15060     15063     15058     15057     15059
     15058     15057     15060     15059     15057     15060     15060     15063     15064
     15060     15063     15065     15060     15063     15066     15061     15060     15062
     15061     15060     15063     15062     15060     15063     15063     15066     15067
     15063     15066     15068     15063     15066     15069     15064     15063     15065
     15064     15063     15066     15065     15063     15066     15067     15066     15068
     15067     15066     15069     15068     15066     15069     15070     15072     15073
     15070     15072     15074     15070     15072     15075     15071     15070     15072
     15072     15075     15076     15072     15075     15077     15072     15075     15078
     15073     15072     15074     15073     15072     15075     15074     15072     15075
     15075     15078     15079     15075     15078     15080     15075     15078     15081
     15076     15075     15077     15076     15075     15078     15077     15075     15078
     15078     15081     15082     15078     15081     15083     15078     15081     15084
     15079     15078     15080     15079     15078     15081     15080     15078     15081
     15081     15084     15085     15081     15084     15086     15081     15084     15087
     15082     15081     15083     15082     15081     15084     15083     15081     15084
     15084     15087     15088     15084     15087     15089     15084     15087     15090
     15085     15084     15086     15085     15084     15087     15086     15084     15087
     15087     15090     15091     15087     15090     15092     15087     15090     15093
     15088     15087     15089     15088     15087     15090     15089     15087     15090
     15090     15093     15094     15090     15093     15095     15091     15090     15092
     15091     15090     15093     15092     15090     15093     15093     15095     15096
     15093     15095     15097     15094     15093     15095     15095     15097     15098
     15095     15097     15099     15095     15097     15100     15096     15095     15097
     15097     15100     15101     15097     15100     15102     15097     15100     15103
     15098     15097     15099     15098     15097     15100     15099     15097     15100
     15100     15103     15104     15100     15103     15105     15100     15103     15106
     15101     15100     15102     15101     15100     15103     15102     15100     15103
     15103     15106     15107     15103     15106     15108     15103     15106     15109
     15104     15103     15105     15104     15103     15106     15105     15103     15106
     15106     15109     15110     15106     15109     15111     15106     15109     15112
     15107     15106     15108     15107     15106     15109     15108     15106     15109
     15109     15112     15113     15109     15112     15114     15109     15112     15115
     15110     15109     15111     15110     15109     15112     15111     15109     15112
     15112     15115     15116     15112     15115     15117     15112     15115     15118
     15113     15112     15114     15113     15112     15115     15114     15112     15115
     15115     15118     15119     15115     15118     15120     15115     15118     15121
     15116     15115     15117     15116     15115     15118     15117     15115     15118
     15119     15118     15120     15119     15118     15121     15120     15118     15121
     15122     15124     15125     15122     15126     15127     15122     15126     15128
     15122     15126     15129     15122     15168     15165     15122     15168     15169
     15122     15168     15170     15123     15122     15124     15123     15122     15126
     15123     15122     15168     15124     15122     15126     15124     15122     15168
     15126     15122     15168     15126     15129     15130     15126     15129     15160
     15127     15126     15128     15127     15126     15129     15128     15126     15129
     15129     15130     15131     15129     15130     15132     15129     15160     15158
     15129     15160     15161     15129     15160     15165     15130     15129     15160
     15130     15132     15133     15130     15132     15134     15130     15132     15135
     15131     15130     15132     15132     15135     15136     15132     15135     15137
     15132     15135     15158     15133     15132     15134     15133     15132     15135
     15134     15132     15135     15135     15137     15138     15135     15137     15139
     15135     15137     15147     15135     15158     15155     15135     15158     15159
     15135     15158     15160     15136     15135     15137     15136     15135     15158
     15137     15135     15158     15137     15139     15140     15137     15139     15141
     15137     15139     15142     15137     15147     15145     15137     15147     15148
     15137     15147     15152     15138     15137     15139     15138     15137     15147
     15139     15137     15147     15139     15142     15143     15139     15142     15144
     15139     15142     15145     15140     15139     15141     15140     15139     15142
     15141     15139     15142     15142     15145     15146     15142     15145     15147
     15142     15145     15171     15143     15142     15144     15143     15142     15145
     15144     15142     15145     15145     15147     15148     15145     15147     15152
     15145     15171     15172     15145     15171     15173     15145     15171     15177
     15146     15145     15147     15146     15145     15171     15147     15145     15171
     15147     15148     15149     15147     15148     15150     15147     15148     15151
     15147     15152     15153     15147     15152     15154     15147     15152     15155
     15148     15147     15152     15149     15148     15150     15149     15148     15151
     15150     15148     15151     15152     15155     15156     15152     15155     15157
     15152     15155     15158     15153     15152     15154     15153     15152     15155
     15154     15152     15155     15155     15158     15159     15155     15158     15160
     15156     15155     15157     15156     15155     15158     15157     15155     15158
     15158     15160     15161     15158     15160     15165     15159     15158     15160
     15160     15161     15162     15160     15161     15163     15160     15161     15164
     15160     15165     15166     15160     15165     15167     15160     15165     15168
     15161     15160     15165     15162     15161     15163     15162     15161     15164
     15163     15161     15164     15165     15168     15169     15165     15168     15170
     15166     15165     15167     15166     15165     15168     15167     15165     15168
     15169     15168     15170     15171     15173     15174     15171     15173     15175
     15171     15173     15176     15171     15177     15178     15171     15177     15179
     15171     15177     15180     15172     15171     15173     15172     15171     15177
     15173     15171     15177     15174     15173     15175     15174     15173     15176
     15175     15173     15176     15177     15180     15181     15177     15180     15182
     15177     15180     15183     15178     15177     15179     15178     15177     15180
     15179     15177     15180     15180     15183     15184     15180     15183     15185
     15180     15183     15186     15181     15180     15182     15181     15180     15183
     15182     15180     15183     15183     15186     15187     15183     15186     15188
     15183     15186     15192     15184     15183     15185     15184     15183     15186
     15185     15183     15186     15186     15188     15189     15186     15188     15190
     15186     15188     15191     15186     15192     15193     15186     15192     15194
     15186     15192     15195     15187     15186     15188     15187     15186     15192
     15188     15186     15192     15189     15188     15190     15189     15188     15191
     15190     15188     15191     15193     15192     15194     15193     15192     15195
     15194     15192     15195     15196     15197     15198     15196     15197     15199
     15196     15197     15212     15196     15200     15201     15196     15200     15202
     15196     15200     15203     15196     15204     15205     15196     15204     15206
     15196     15204     15207     15196     15208     15209     15196     15208     15210
     15196     15208     15211     15197     15196     15200     15197     15196     15204
     15197     15196     15208     15197     15212     15213     15197     15212     15214
     15197     15212     15218     15198     15197     15199     15198     15197     15212
     15199     15197     15212     15200     15196     15204     15200     15196     15208
     15201     15200     15202     15201     15200     15203     15202     15200     15203
     15204     15196     15208     15205     15204     15206     15205     15204     15207
     15206     15204     15207     15209     15208     15210     15209     15208     15211
     15210     15208     15211     15212     15218     15215     15213     15212     15214
     15213     15212     15218     15214     15212     15218     15215     15219     15220
     15216     15215     15217     15216     15215     15218     15216     15215     15219
     15217     15215     15218     15217     15215     15219     15218     15215     15219
     15219     15220     15221     15219     15220     15222     15219     15220     15223
     15220     15223     15224     15220     15223     15225     15220     15223     15231
     15221     15220     15222     15221     15220     15223     15222     15220     15223
     15223     15225     15226     15223     15231     15232     15223     15231     15233
     15223     15231     15234     15224     15223     15225     15224     15223     15231
     15225     15223     15231     15225     15226     15227     15225     15226     15228
     15226     15228     15229     15226     15228     15230     15226     15228     15240
     15227     15226     15228     15228     15240     15241     15228     15240     15242
     15228     15240     15243     15229     15228     15230     15229     15228     15240
     15230     15228     15240     15231     15234     15235     15232     15231     15233
     15232     15231     15234     15233     15231     15234     15234     15235     15236
     15234     15235     15237     15235     15237     15238     15235     15237     15239
     15235     15237     15287     15236     15235     15237     15237     15287     15288
     15237     15287     15289     15237     15287     15290     15238     15237     15239
     15238     15237     15287     15239     15237     15287     15240     15243     15244
     15240     15243     15245     15240     15243     15246     15241     15240     15242
     15241     15240     15243     15242     15240     15243     15243     15246     15247
     15243     15246     15248     15243     15246     15249     15244     15243     15245
     15244     15243     15246     15245     15243     15246     15246     15249     15250
     15246     15249     15251     15246     15249     15252     15247     15246     15248
     15247     15246     15249     15248     15246     15249     15249     15252     15253
     15249     15252     15254     15249     15252     15255     15250     15249     15251
     15250     15249     15252     15251     15249     15252     15252     15255     15256
     15252     15255     15257     15252     15255     15258     15253     15252     15254
     15253     15252     15255     15254     15252     15255     15255     15258     15259
     15255     15258     15260     15256     15255     15257     15256     15255     15258
     15257     15255     15258     15258     15260     15261     15258     15260     15262
     15259     15258     15260     15260     15262     15263     15260     15262     15264
     15260     15262     15265     15261     15260     15262     15262     15265     15266
     15262     15265     15267     15262     15265     15268     15263     15262     15264
     15263     15262     15265     15264     15262     15265     15265     15268     15269
     15265     15268     15270     15265     15268     15271     15266     15265     15267
     15266     15265     15268     15267     15265     15268     15268     15271     15272
     15268     15271     15273     15268     15271     15274     15269     15268     15270
     15269     15268     15271     15270     15268     15271     15271     15274     15275
     15271     15274     15276     15271     15274     15277     15272     15271     15273
     15272     15271     15274     15273     15271     15274     15274     15277     15278
     15274     15277     15279     15274     15277     15280     15275     15274     15276
     15275     15274     15277     15276     15274     15277     15277     15280     15281
     15277     15280     15282     15277     15280     15283     15278     15277     15279
     15278     15277     15280     15279     15277     15280     15280     15283     15284
     15280     15283     15285     15280     15283     15286     15281     15280     15282
     15281     15280     15283     15282     15280     15283     15284     15283     15285
     15284     15283     15286     15285     15283     15286     15287     15290     15291
     15287     15290     15292     15287     15290     15293     15288     15287     15289
     15288     15287     15290     15289     15287     15290     15290     15293     15294
     15290     15293     15295     15290     15293     15296     15291     15290     15292
     15291     15290     15293     15292     15290     15293     15293     15296     15297
     15293     15296     15298     15293     15296     15299     15294     15293     15295
     15294     15293     15296     15295     15293     15296     15296     15299     15300
     15296     15299     15301     15296     15299     15302     15297     15296     15298
     15297     15296     15299     15298     15296     15299     15299     15302     15303
     15299     15302     15304     15299     15302     15305     15300     15299     15301
     15300     15299     15302     15301     15299     15302     15302     15305     15306
     15302     15305     15307     15302     15305     15308     15303     15302     15304
     15303     15302     15305     15304     15302     15305     15305     15308     15309
     15305     15308     15310     15305     15308     15311     15306     15305     15307
     15306     15305     15308     15307     15305     15308     15308     15311     15312
     15308     15311     15313     15308     15311     15314     15309     15308     15310
     15309     15308     15311     15310     15308     15311     15311     15314     15315
     15311     15314     15316     15311     15314     15317     15312     15311     15313
     15312     15311     15314     15313     15311     15314     15314     15317     15318
     15314     15317     15319     15314     15317     15320     15315     15314     15316
     15315     15314     15317     15316     15314     15317     15317     15320     15321
     15317     15320     15322     15317     15320     15323     15318     15317     15319
     15318     15317     15320     15319     15317     15320     15320     15323     15324
     15320     15323     15325     15320     15323     15326     15321     15320     15322
     15321     15320     15323     15322     15320     15323     15323     15326     15327
     15323     15326     15328     15323     15326     15329     15324     15323     15325
     15324     15323     15326     15325     15323     15326     15327     15326     15328
     15327     15326     15329     15328     15326     15329     15330     15331     15332
     15330     15331     15333     15330     15331     15334     15330     15335     15336
     15330     15335     15337     15330     15335     15338     15330     15339     15340
     15330     15339     15341     15330     15339     15342     15330     15343     15344
     15330     15343     15345     15330     15343     15346     15331     15330     15335
     15331     15330     15339     15331     15330     15343     15332     15331     15333
     15332     15331     15334     15333     15331     15334     15335     15330     15339
     15335     15330     15343     15336     15335     15337     15336     15335     15338
     15337     15335     15338     15339     15330     15343     15340     15339     15341
     15340     15339     15342     15341     15339     15342     15343     15346     15347
     15343     15346     15348     15343     15346     15353     15344     15343     15345
     15344     15343     15346     15345     15343     15346     15346     15353     15349
     15347     15346     15348     15347     15346     15353     15348     15346     15353
     15349     15352     15354     15350     15349     15351     15350     15349     15352
     15350     15349     15353     15351     15349     15352     15351     15349     15353
     15352     15349     15353     15352     15354     15355     15352     15354     15356
     15352     15354     15359     15354     15359     15357     15354     15359     15360
     15354     15359     15361     15355     15354     15356     15355     15354     15359
     15356     15354     15359     15357     15359     15360     15357     15359     15361
     15357     15409     15410     15357     15409     15411     15358     15357     15359
     15358     15357     15409     15359     15357     15409     15359     15361     15362
     15359     15361     15363     15359     15361     15365     15360     15359     15361
     15361     15363     15364     15361     15365     15366     15361     15365     15367
     15362     15361     15363     15362     15361     15365     15363     15361     15365
     15365     15367     15368     15365     15367     15369     15366     15365     15367
     15367     15369     15370     15367     15369     15371     15367     15369     15372
     15368     15367     15369     15369     15372     15373     15369     15372     15374
     15369     15372     15375     15370     15369     15371     15370     15369     15372
     15371     15369     15372     15372     15375     15376     15372     15375     15377
     15372     15375     15378     15373     15372     15374     15373     15372     15375
     15374     15372     15375     15375     15378     15379     15375     15378     15380
     15375     15378     15381     15376     15375     15377     15376     15375     15378
     15377     15375     15378     15378     15381     15382     15378     15381     15383
     15378     15381     15384     15379     15378     15380     15379     15378     15381
     15380     15378     15381     15381     15384     15385     15381     15384     15386
     15381     15384     15387     15382     15381     15383     15382     15381     15384
     15383     15381     15384     15384     15387     15388     15384     15387     15389
     15384     15387     15390     15385     15384     15386     15385     15384     15387
     15386     15384     15387     15387     15390     15391     15387     15390     15392
     15387     15390     15393     15388     15387     15389     15388     15387     15390
     15389     15387     15390     15390     15393     15394     15390     15393     15395
     15390     15393     15396     15391     15390     15392     15391     15390     15393
     15392     15390     15393     15393     15396     15397     15393     15396     15398
     15393     15396     15399     15394     15393     15395     15394     15393     15396
     15395     15393     15396     15396     15399     15400     15396     15399     15401
     15396     15399     15402     15397     15396     15398     15397     15396     15399
     15398     15396     15399     15399     15402     15403     15399     15402     15404
     15399     15402     15405     15400     15399     15401     15400     15399     15402
     15401     15399     15402     15402     15405     15406     15402     15405     15407
     15402     15405     15408     15403     15402     15404     15403     15402     15405
     15404     15402     15405     15406     15405     15407     15406     15405     15408
     15407     15405     15408     15409     15411     15412     15409     15411     15413
     15409     15411     15414     15410     15409     15411     15411     15414     15415
     15411     15414     15416     15411     15414     15417     15412     15411     15413
     15412     15411     15414     15413     15411     15414     15414     15417     15418
     15414     15417     15419     15414     15417     15420     15415     15414     15416
     15415     15414     15417     15416     15414     15417     15417     15420     15421
     15417     15420     15422     15417     15420     15423     15418     15417     15419
     15418     15417     15420     15419     15417     15420     15420     15423     15424
     15420     15423     15425     15420     15423     15426     15421     15420     15422
     15421     15420     15423     15422     15420     15423     15423     15426     15427
     15423     15426     15428     15423     15426     15429     15424     15423     15425
     15424     15423     15426     15425     15423     15426     15426     15429     15430
     15426     15429     15431     15426     15429     15432     15427     15426     15428
     15427     15426     15429     15428     15426     15429     15429     15432     15433
     15429     15432     15434     15430     15429     15431     15430     15429     15432
     15431     15429     15432     15432     15434     15435     15432     15434     15436
     15433     15432     15434     15434     15436     15437     15434     15436     15438
     15434     15436     15439     15435     15434     15436     15436     15439     15440
     15436     15439     15441     15436     15439     15442     15437     15436     15438
     15437     15436     15439     15438     15436     15439     15439     15442     15443
     15439     15442     15444     15439     15442     15445     15440     15439     15441
     15440     15439     15442     15441     15439     15442     15442     15445     15446
     15442     15445     15447     15442     15445     15448     15443     15442     15444
     15443     15442     15445     15444     15442     15445     15445     15448     15449
     15445     15448     15450     15445     15448     15451     15446     15445     15447
     15446     15445     15448     15447     15445     15448     15448     15451     15452
     15448     15451     15453     15448     15451     15454     15449     15448     15450
     15449     15448     15451     15450     15448     15451     15451     15454     15455
     15451     15454     15456     15451     15454     15457     15452     15451     15453
     15452     15451     15454     15453     15451     15454     15454     15457     15458
     15454     15457     15459     15454     15457     15460     15455     15454     15456
     15455     15454     15457     15456     15454     15457     15458     15457     15459
     15458     15457     15460     15459     15457     15460     15461     15465     15466
     15461     15465     15467     15461     15465     15468     15462     15461     15463
     15462     15461     15464     15462     15461     15465     15463     15461     15464
     15463     15461     15465     15464     15461     15465     15465     15468     15469
     15465     15468     15470     15465     15468     15474     15466     15465     15467
     15466     15465     15468     15467     15465     15468     15468     15474     15471
     15469     15468     15470     15469     15468     15474     15470     15468     15474
     15471     15475     15476     15472     15471     15473     15472     15471     15474
     15472     15471     15475     15473     15471     15474     15473     15471     15475
     15474     15471     15475     15475     15476     15477     15475     15476     15478
     15475     15476     15479     15476     15479     15480     15476     15479     15481
     15476     15479     15487     15477     15476     15478     15477     15476     15479
     15478     15476     15479     15479     15481     15482     15479     15487     15488
     15479     15487     15489     15479     15487     15490     15480     15479     15481
     15480     15479     15487     15481     15479     15487     15481     15482     15483
     15481     15482     15484     15482     15484     15485     15482     15484     15486
     15482     15484     15496     15483     15482     15484     15484     15496     15497
     15484     15496     15498     15484     15496     15499     15485     15484     15486
     15485     15484     15496     15486     15484     15496     15487     15490     15491
     15488     15487     15489     15488     15487     15490     15489     15487     15490
     15490     15491     15492     15490     15491     15493     15491     15493     15494
     15491     15493     15495     15491     15493     15543     15492     15491     15493
     15493     15543     15544     15493     15543     15545     15493     15543     15546
     15494     15493     15495     15494     15493     15543     15495     15493     15543
     15496     15499     15500     15496     15499     15501     15496     15499     15502
     15497     15496     15498     15497     15496     15499     15498     15496     15499
     15499     15502     15503     15499     15502     15504     15499     15502     15505
     15500     15499     15501     15500     15499     15502     15501     15499     15502
     15502     15505     15506     15502     15505     15507     15502     15505     15508
     15503     15502     15504     15503     15502     15505     15504     15502     15505
     15505     15508     15509     15505     15508     15510     15505     15508     15511
     15506     15505     15507     15506     15505     15508     15507     15505     15508
     15508     15511     15512     15508     15511     15513     15508     15511     15514
     15509     15508     15510     15509     15508     15511     15510     15508     15511
     15511     15514     15515     15511     15514     15516     15512     15511     15513
     15512     15511     15514     15513     15511     15514     15514     15516     15517
     15514     15516     15518     15515     15514     15516     15516     15518     15519
     15516     15518     15520     15516     15518     15521     15517     15516     15518
     15518     15521     15522     15518     15521     15523     15518     15521     15524
     15519     15518     15520     15519     15518     15521     15520     15518     15521
     15521     15524     15525     15521     15524     15526     15521     15524     15527
     15522     15521     15523     15522     15521     15524     15523     15521     15524
     15524     15527     15528     15524     15527     15529     15524     15527     15530
     15525     15524     15526     15525     15524     15527     15526     15524     15527
     15527     15530     15531     15527     15530     15532     15527     15530     15533
     15528     15527     15529     15528     15527     15530     15529     15527     15530
     15530     15533     15534     15530     15533     15535     15530     15533     15536
     15531     15530     15532     15531     15530     15533     15532     15530     15533
     15533     15536     15537     15533     15536     15538     15533     15536     15539
     15534     15533     15535     15534     15533     15536     15535     15533     15536
     15536     15539     15540     15536     15539     15541     15536     15539     15542
     15537     15536     15538     15537     15536     15539     15538     15536     15539
     15540     15539     15541     15540     15539     15542     15541     15539     15542
     15543     15546     15547     15543     15546     15548     15543     15546     15549
     15544     15543     15545     15544     15543     15546     15545     15543     15546
     15546     15549     15550     15546     15549     15551     15546     15549     15552
     15547     15546     15548     15547     15546     15549     15548     15546     15549
     15549     15552     15553     15549     15552     15554     15549     15552     15555
     15550     15549     15551     15550     15549     15552     15551     15549     15552
     15552     15555     15556     15552     15555     15557     15552     15555     15558
     15553     15552     15554     15553     15552     15555     15554     15552     15555
     15555     15558     15559     15555     15558     15560     15555     15558     15561
     15556     15555     15557     15556     15555     15558     15557     15555     15558
     15558     15561     15562     15558     15561     15563     15558     15561     15564
     15559     15558     15560     15559     15558     15561     15560     15558     15561
     15561     15564     15565     15561     15564     15566     15561     15564     15567
     15562     15561     15563     15562     15561     15564     15563     15561     15564
     15564     15567     15568     15564     15567     15569     15564     15567     15570
     15565     15564     15566     15565     15564     15567     15566     15564     15567
     15567     15570     15571     15567     15570     15572     15567     15570     15573
     15568     15567     15569     15568     15567     15570     15569     15567     15570
     15570     15573     15574     15570     15573     15575     15570     15573     15576
     15571     15570     15572     15571     15570     15573     15572     15570     15573
     15573     15576     15577     15573     15576     15578     15573     15576     15579
     15574     15573     15575     15574     15573     15576     15575     15573     15576
     15576     15579     15580     15576     15579     15581     15576     15579     15582
     15577     15576     15578     15577     15576     15579     15578     15576     15579
     15579     15582     15583     15579     15582     15584     15579     15582     15585
     15580     15579     15581     15580     15579     15582     15581     15579     15582
     15582     15585     15586     15582     15585     15587     15582     15585     15588
     15583     15582     15584     15583     15582     15585     15584     15582     15585
     15585     15588     15589     15585     15588     15590     15585     15588     15591
     15586     15585     15587     15586     15585     15588     15587     15585     15588
     15589     15588     15590     15589     15588     15591     15590     15588     15591
     15592     15593     15594     15592     15593     15595     15592     15593     15596
     15592     15597     15598     15592     15597     15599     15592     15597     15600
     15592     15601     15602     15592     15601     15603     15592     15601     15604
     15592     15605     15606     15592     15605     15607     15592     15605     15608
     15593     15592     15597     15593     15592     15601     15593     15592     15605
     15594     15593     15595     15594     15593     15596     15595     15593     15596
     15597     15592     15601     15597     15592     15605     15598     15597     15599
     15598     15597     15600     15599     15597     15600     15601     15592     15605
     15602     15601     15603     15602     15601     15604     15603     15601     15604
     15605     15608     15609     15605     15608     15610     15605     15608     15615
     15606     15605     15607     15606     15605     15608     15607     15605     15608
     15608     15615     15611     15609     15608     15610     15609     15608     15615
     15610     15608     15615     15611     15614     15616     15612     15611     15613
     15612     15611     15614     15612     15611     15615     15613     15611     15614
     15613     15611     15615     15614     15611     15615     15614     15616     15617
     15614     15616     15618     15614     15616     15621     15616     15621     15619
     15616     15621     15622     15616     15621     15623     15617     15616     15618
     15617     15616     15621     15618     15616     15621     15619     15621     15622
     15619     15621     15623     15619     15671     15672     15619     15671     15673
     15620     15619     15621     15620     15619     15671     15621     15619     15671
     15621     15623     15624     15621     15623     15625     15621     15623     15627
     15622     15621     15623     15623     15625     15626     15623     15627     15628
     15623     15627     15629     15624     15623     15625     15624     15623     15627
     15625     15623     15627     15627     15629     15630     15627     15629     15631
     15628     15627     15629     15629     15631     15632     15629     15631     15633
     15629     15631     15634     15630     15629     15631     15631     15634     15635
     15631     15634     15636     15631     15634     15637     15632     15631     15633
     15632     15631     15634     15633     15631     15634     15634     15637     15638
     15634     15637     15639     15634     15637     15640     15635     15634     15636
     15635     15634     15637     15636     15634     15637     15637     15640     15641
     15637     15640     15642     15637     15640     15643     15638     15637     15639
     15638     15637     15640     15639     15637     15640     15640     15643     15644
     15640     15643     15645     15640     15643     15646     15641     15640     15642
     15641     15640     15643     15642     15640     15643     15643     15646     15647
     15643     15646     15648     15643     15646     15649     15644     15643     15645
     15644     15643     15646     15645     15643     15646     15646     15649     15650
     15646     15649     15651     15646     15649     15652     15647     15646     15648
     15647     15646     15649     15648     15646     15649     15649     15652     15653
     15649     15652     15654     15649     15652     15655     15650     15649     15651
     15650     15649     15652     15651     15649     15652     15652     15655     15656
     15652     15655     15657     15652     15655     15658     15653     15652     15654
     15653     15652     15655     15654     15652     15655     15655     15658     15659
     15655     15658     15660     15655     15658     15661     15656     15655     15657
     15656     15655     15658     15657     15655     15658     15658     15661     15662
     15658     15661     15663     15658     15661     15664     15659     15658     15660
     15659     15658     15661     15660     15658     15661     15661     15664     15665
     15661     15664     15666     15661     15664     15667     15662     15661     15663
     15662     15661     15664     15663     15661     15664     15664     15667     15668
     15664     15667     15669     15664     15667     15670     15665     15664     15666
     15665     15664     15667     15666     15664     15667     15668     15667     15669
     15668     15667     15670     15669     15667     15670     15671     15673     15674
     15671     15673     15675     15671     15673     15676     15672     15671     15673
     15673     15676     15677     15673     15676     15678     15673     15676     15679
     15674     15673     15675     15674     15673     15676     15675     15673     15676
     15676     15679     15680     15676     15679     15681     15676     15679     15682
     15677     15676     15678     15677     15676     15679     15678     15676     15679
     15679     15682     15683     15679     15682     15684     15679     15682     15685
     15680     15679     15681     15680     15679     15682     15681     15679     15682
     15682     15685     15686     15682     15685     15687     15682     15685     15688
     15683     15682     15684     15683     15682     15685     15684     15682     15685
     15685     15688     15689     15685     15688     15690     15685     15688     15691
     15686     15685     15687     15686     15685     15688     15687     15685     15688
     15688     15691     15692     15688     15691     15693     15688     15691     15694
     15689     15688     15690     15689     15688     15691     15690     15688     15691
     15691     15694     15695     15691     15694     15696     15692     15691     15693
     15692     15691     15694     15693     15691     15694     15694     15696     15697
     15694     15696     15698     15695     15694     15696     15696     15698     15699
     15696     15698     15700     15696     15698     15701     15697     15696     15698
     15698     15701     15702     15698     15701     15703     15698     15701     15704
     15699     15698     15700     15699     15698     15701     15700     15698     15701
     15701     15704     15705     15701     15704     15706     15701     15704     15707
     15702     15701     15703     15702     15701     15704     15703     15701     15704
     15704     15707     15708     15704     15707     15709     15704     15707     15710
     15705     15704     15706     15705     15704     15707     15706     15704     15707
     15707     15710     15711     15707     15710     15712     15707     15710     15713
     15708     15707     15709     15708     15707     15710     15709     15707     15710
     15710     15713     15714     15710     15713     15715     15710     15713     15716
     15711     15710     15712     15711     15710     15713     15712     15710     15713
     15713     15716     15717     15713     15716     15718     15713     15716     15719
     15714     15713     15715     15714     15713     15716     15715     15713     15716
     15716     15719     15720     15716     15719     15721     15716     15719     15722
     15717     15716     15718     15717     15716     15719     15718     15716     15719
     15720     15719     15721     15720     15719     15722     15721     15719     15722
     15723     15727     15728     15723     15727     15729     15723     15727     15732
     15724     15723     15725     15724     15723     15726     15724     15723     15727
     15725     15723     15726     15725     15723     15727     15726     15723     15727
     15727     15729     15730     15727     15729     15731     15727     15732     15733
     15727     15732     15734     15727     15732     15738     15728     15727     15729
     15728     15727     15732     15729     15727     15732     15730     15729     15731
     15732     15738     15735     15733     15732     15734     15733     15732     15738
     15734     15732     15738     15735     15739     15740     15736     15735     15737
     15736     15735     15738     15736     15735     15739     15737     15735     15738
     15737     15735     15739     15738     15735     15739     15739     15740     15741
     15739     15740     15742     15739     15740     15743     15740     15743     15744
     15740     15743     15745     15740     15743     15751     15741     15740     15742
     15741     15740     15743     15742     15740     15743     15743     15745     15746
     15743     15751     15752     15743     15751     15753     15743     15751     15754
     15744     15743     15745     15744     15743     15751     15745     15743     15751
     15745     15746     15747     15745     15746     15748     15746     15748     15749
     15746     15748     15750     15746     15748     15760     15747     15746     15748
     15748     15760     15761     15748     15760     15762     15748     15760     15763
     15749     15748     15750     15749     15748     15760     15750     15748     15760
     15751     15754     15755     15752     15751     15753     15752     15751     15754
     15753     15751     15754     15754     15755     15756     15754     15755     15757
     15755     15757     15758     15755     15757     15759     15755     15757     15807
     15756     15755     15757     15757     15807     15808     15757     15807     15809
     15757     15807     15810     15758     15757     15759     15758     15757     15807
     15759     15757     15807     15760     15763     15764     15760     15763     15765
     15760     15763     15766     15761     15760     15762     15761     15760     15763
     15762     15760     15763     15763     15766     15767     15763     15766     15768
     15764     15763     15765     15764     15763     15766     15765     15763     15766
     15766     15768     15769     15766     15768     15770     15767     15766     15768
     15768     15770     15771     15768     15770     15772     15768     15770     15773
     15769     15768     15770     15770     15773     15774     15770     15773     15775
     15771     15770     15772     15771     15770     15773     15772     15770     15773
     15773     15775     15776     15773     15775     15777     15774     15773     15775
     15775     15777     15778     15775     15777     15779     15775     15777     15780
     15776     15775     15777     15777     15780     15781     15777     15780     15782
     15778     15777     15779     15778     15777     15780     15779     15777     15780
     15780     15782     15783     15780     15782     15784     15781     15780     15782
     15782     15784     15785     15782     15784     15786     15782     15784     15787
     15783     15782     15784     15784     15787     15788     15784     15787     15789
     15785     15784     15786     15785     15784     15787     15786     15784     15787
     15787     15789     15790     15787     15789     15791     15788     15787     15789
     15789     15791     15792     15789     15791     15793     15789     15791     15794
     15790     15789     15791     15791     15794     15795     15791     15794     15796
     15791     15794     15797     15792     15791     15793     15792     15791     15794
     15793     15791     15794     15794     15797     15798     15794     15797     15799
     15794     15797     15800     15795     15794     15796     15795     15794     15797
     15796     15794     15797     15797     15800     15801     15797     15800     15802
     15797     15800     15803     15798     15797     15799     15798     15797     15800
     15799     15797     15800     15800     15803     15804     15800     15803     15805
     15800     15803     15806     15801     15800     15802     15801     15800     15803
     15802     15800     15803     15804     15803     15805     15804     15803     15806
     15805     15803     15806     15807     15810     15811     15807     15810     15812
     15807     15810     15813     15808     15807     15809     15808     15807     15810
     15809     15807     15810     15810     15813     15814     15810     15813     15815
     15810     15813     15816     15811     15810     15812     15811     15810     15813
     15812     15810     15813     15813     15816     15817     15813     15816     15818
     15813     15816     15819     15814     15813     15815     15814     15813     15816
     15815     15813     15816     15816     15819     15820     15816     15819     15821
     15816     15819     15822     15817     15816     15818     15817     15816     15819
     15818     15816     15819     15819     15822     15823     15819     15822     15824
     15819     15822     15825     15820     15819     15821     15820     15819     15822
     15821     15819     15822     15822     15825     15826     15822     15825     15827
     15822     15825     15828     15823     15822     15824     15823     15822     15825
     15824     15822     15825     15825     15828     15829     15825     15828     15830
     15825     15828     15831     15826     15825     15827     15826     15825     15828
     15827     15825     15828     15828     15831     15832     15828     15831     15833
     15828     15831     15834     15829     15828     15830     15829     15828     15831
     15830     15828     15831     15831     15834     15835     15831     15834     15836
     15831     15834     15837     15832     15831     15833     15832     15831     15834
     15833     15831     15834     15834     15837     15838     15834     15837     15839
     15834     15837     15840     15835     15834     15836     15835     15834     15837
     15836     15834     15837     15837     15840     15841     15837     15840     15842
     15837     15840     15843     15838     15837     15839     15838     15837     15840
     15839     15837     15840     15840     15843     15844     15840     15843     15845
     15840     15843     15846     15841     15840     15842     15841     15840     15843
     15842     15840     15843     15843     15846     15847     15843     15846     15848
     15843     15846     15849     15844     15843     15845     15844     15843     15846
     15845     15843     15846     15846     15849     15850     15846     15849     15851
     15846     15849     15852     15847     15846     15848     15847     15846     15849
     15848     15846     15849     15849     15852     15853     15849     15852     15854
     15849     15852     15855     15850     15849     15851     15850     15849     15852
     15851     15849     15852     15853     15852     15854     15853     15852     15855
     15854     15852     15855     15856     15860     15861     15856     15860     15862
     15856     15860     15863     15857     15856     15858     15857     15856     15859
     15857     15856     15860     15858     15856     15859     15858     15856     15860
     15859     15856     15860     15860     15863     15864     15860     15863     15865
     15860     15863     15869     15861     15860     15862     15861     15860     15863
     15862     15860     15863     15863     15869     15866     15864     15863     15865
     15864     15863     15869     15865     15863     15869     15866     15870     15871
     15867     15866     15868     15867     15866     15869     15867     15866     15870
     15868     15866     15869     15868     15866     15870     15869     15866     15870
     15870     15871     15872     15870     15871     15873     15870     15871     15874
     15871     15874     15875     15871     15874     15876     15871     15874     15882
     15872     15871     15873     15872     15871     15874     15873     15871     15874
     15874     15876     15877     15874     15882     15883     15874     15882     15884
     15874     15882     15885     15875     15874     15876     15875     15874     15882
     15876     15874     15882     15876     15877     15878     15876     15877     15879
     15877     15879     15880     15877     15879     15881     15877     15879     15891
     15878     15877     15879     15879     15891     15892     15879     15891     15893
     15879     15891     15894     15880     15879     15881     15880     15879     15891
     15881     15879     15891     15882     15885     15886     15883     15882     15884
     15883     15882     15885     15884     15882     15885     15885     15886     15887
     15885     15886     15888     15886     15888     15889     15886     15888     15890
     15886     15888     15938     15887     15886     15888     15888     15938     15939
     15888     15938     15940     15888     15938     15941     15889     15888     15890
     15889     15888     15938     15890     15888     15938     15891     15894     15895
     15891     15894     15896     15891     15894     15897     15892     15891     15893
     15892     15891     15894     15893     15891     15894     15894     15897     15898
     15894     15897     15899     15895     15894     15896     15895     15894     15897
     15896     15894     15897     15897     15899     15900     15897     15899     15901
     15898     15897     15899     15899     15901     15902     15899     15901     15903
     15899     15901     15904     15900     15899     15901     15901     15904     15905
     15901     15904     15906     15902     15901     15903     15902     15901     15904
     15903     15901     15904     15904     15906     15907     15904     15906     15908
     15905     15904     15906     15906     15908     15909     15906     15908     15910
     15906     15908     15911     15907     15906     15908     15908     15911     15912
     15908     15911     15913     15909     15908     15910     15909     15908     15911
     15910     15908     15911     15911     15913     15914     15911     15913     15915
     15912     15911     15913     15913     15915     15916     15913     15915     15917
     15913     15915     15918     15914     15913     15915     15915     15918     15919
     15915     15918     15920     15916     15915     15917     15916     15915     15918
     15917     15915     15918     15918     15920     15921     15918     15920     15922
     15919     15918     15920     15920     15922     15923     15920     15922     15924
     15920     15922     15925     15921     15920     15922     15922     15925     15926
     15922     15925     15927     15922     15925     15928     15923     15922     15924
     15923     15922     15925     15924     15922     15925     15925     15928     15929
     15925     15928     15930     15925     15928     15931     15926     15925     15927
     15926     15925     15928     15927     15925     15928     15928     15931     15932
     15928     15931     15933     15928     15931     15934     15929     15928     15930
     15929     15928     15931     15930     15928     15931     15931     15934     15935
     15931     15934     15936     15931     15934     15937     15932     15931     15933
     15932     15931     15934     15933     15931     15934     15935     15934     15936
     15935     15934     15937     15936     15934     15937     15938     15941     15942
     15938     15941     15943     15938     15941     15944     15939     15938     15940
     15939     15938     15941     15940     15938     15941     15941     15944     15945
     15941     15944     15946     15941     15944     15947     15942     15941     15943
     15942     15941     15944     15943     15941     15944     15944     15947     15948
     15944     15947     15949     15944     15947     15950     15945     15944     15946
     15945     15944     15947     15946     15944     15947     15947     15950     15951
     15947     15950     15952     15947     15950     15953     15948     15947     15949
     15948     15947     15950     15949     15947     15950     15950     15953     15954
     15950     15953     15955     15950     15953     15956     15951     15950     15952
     15951     15950     15953     15952     15950     15953     15953     15956     15957
     15953     15956     15958     15953     15956     15959     15954     15953     15955
     15954     15953     15956     15955     15953     15956     15956     15959     15960
     15956     15959     15961     15956     15959     15962     15957     15956     15958
     15957     15956     15959     15958     15956     15959     15959     15962     15963
     15959     15962     15964     15959     15962     15965     15960     15959     15961
     15960     15959     15962     15961     15959     15962     15962     15965     15966
     15962     15965     15967     15962     15965     15968     15963     15962     15964
     15963     15962     15965     15964     15962     15965     15965     15968     15969
     15965     15968     15970     15965     15968     15971     15966     15965     15967
     15966     15965     15968     15967     15965     15968     15968     15971     15972
     15968     15971     15973     15968     15971     15974     15969     15968     15970
     15969     15968     15971     15970     15968     15971     15971     15974     15975
     15971     15974     15976     15971     15974     15977     15972     15971     15973
     15972     15971     15974     15973     15971     15974     15974     15977     15978
     15974     15977     15979     15974     15977     15980     15975     15974     15976
     15975     15974     15977     15976     15974     15977     15977     15980     15981
     15977     15980     15982     15977     15980     15983     15978     15977     15979
     15978     15977     15980     15979     15977     15980     15980     15983     15984
     15980     15983     15985     15980     15983     15986     15981     15980     15982
     15981     15980     15983     15982     15980     15983     15984     15983     15985
     15984     15983     15986     15985     15983     15986     15987     15989     15990
     15987     15991     15992     15987     15991     15993     15987     15991     15994
     15987     16033     16030     15987     16033     16034     15987     16033     16035
     15988     15987     15989     15988     15987     15991     15988     15987     16033
     15989     15987     15991     15989     15987     16033     15991     15987     16033
     15991     15994     15995     15991     15994     16025     15992     15991     15993
     15992     15991     15994     15993     15991     15994     15994     15995     15996
     15994     15995     15997     15994     16025     16023     15994     16025     16026
     15994     16025     16030     15995     15994     16025     15995     15997     15998
     15995     15997     15999     15995     15997     16000     15996     15995     15997
     15997     16000     16001     15997     16000     16002     15997     16000     16023
     15998     15997     15999     15998     15997     16000     15999     15997     16000
     16000     16002     16003     16000     16002     16004     16000     16002     16012
     16000     16023     16020     16000     16023     16024     16000     16023     16025
     16001     16000     16002     16001     16000     16023     16002     16000     16023
     16002     16004     16005     16002     16004     16006     16002     16004     16007
     16002     16012     16010     16002     16012     16013     16002     16012     16017
     16003     16002     16004     16003     16002     16012     16004     16002     16012
     16004     16007     16008     16004     16007     16009     16004     16007     16010
     16005     16004     16006     16005     16004     16007     16006     16004     16007
     16007     16010     16011     16007     16010     16012     16007     16010     16036
     16008     16007     16009     16008     16007     16010     16009     16007     16010
     16010     16012     16013     16010     16012     16017     16010     16036     16037
     16010     16036     16038     16010     16036     16042     16011     16010     16012
     16011     16010     16036     16012     16010     16036     16012     16013     16014
     16012     16013     16015     16012     16013     16016     16012     16017     16018
     16012     16017     16019     16012     16017     16020     16013     16012     16017
     16014     16013     16015     16014     16013     16016     16015     16013     16016
     16017     16020     16021     16017     16020     16022     16017     16020     16023
     16018     16017     16019     16018     16017     16020     16019     16017     16020
     16020     16023     16024     16020     16023     16025     16021     16020     16022
     16021     16020     16023     16022     16020     16023     16023     16025     16026
     16023     16025     16030     16024     16023     16025     16025     16026     16027
     16025     16026     16028     16025     16026     16029     16025     16030     16031
     16025     16030     16032     16025     16030     16033     16026     16025     16030
     16027     16026     16028     16027     16026     16029     16028     16026     16029
     16030     16033     16034     16030     16033     16035     16031     16030     16032
     16031     16030     16033     16032     16030     16033     16034     16033     16035
     16036     16038     16039     16036     16038     16040     16036     16038     16041
     16036     16042     16043     16036     16042     16044     16036     16042     16045
     16037     16036     16038     16037     16036     16042     16038     16036     16042
     16039     16038     16040     16039     16038     16041     16040     16038     16041
     16042     16045     16046     16042     16045     16047     16042     16045     16048
     16043     16042     16044     16043     16042     16045     16044     16042     16045
     16045     16048     16049     16045     16048     16050     16045     16048     16051
     16046     16045     16047     16046     16045     16048     16047     16045     16048
     16048     16051     16052     16048     16051     16053     16048     16051     16057
     16049     16048     16050     16049     16048     16051     16050     16048     16051
     16051     16053     16054     16051     16053     16055     16051     16053     16056
     16051     16057     16058     16051     16057     16059     16051     16057     16060
     16052     16051     16053     16052     16051     16057     16053     16051     16057
     16054     16053     16055     16054     16053     16056     16055     16053     16056
     16058     16057     16059     16058     16057     16060     16059     16057     16060
     16061     16062     16063     16061     16062     16064     16061     16062     16065
     16061     16066     16067     16061     16066     16068     16061     16066     16069
     16061     16070     16071     16061     16070     16072     16061     16070     16073
     16061     16074     16075     16061     16074     16076     16061     16074     16077
     16062     16061     16066     16062     16061     16070     16062     16061     16074
     16063     16062     16064     16063     16062     16065     16064     16062     16065
     16066     16061     16070     16066     16061     16074     16067     16066     16068
     16067     16066     16069     16068     16066     16069     16070     16061     16074
     16071     16070     16072     16071     16070     16073     16072     16070     16073
     16074     16077     16078     16074     16077     16079     16074     16077     16084
     16075     16074     16076     16075     16074     16077     16076     16074     16077
     16077     16084     16080     16078     16077     16079     16078     16077     16084
     16079     16077     16084     16080     16083     16085     16081     16080     16082
     16081     16080     16083     16081     16080     16084     16082     16080     16083
     16082     16080     16084     16083     16080     16084     16083     16085     16086
     16083     16085     16087     16083     16085     16090     16085     16090     16088
     16085     16090     16091     16085     16090     16092     16086     16085     16087
     16086     16085     16090     16087     16085     16090     16088     16090     16091
     16088     16090     16092     16088     16140     16141     16088     16140     16142
     16089     16088     16090     16089     16088     16140     16090     16088     16140
     16090     16092     16093     16090     16092     16094     16090     16092     16096
     16091     16090     16092     16092     16094     16095     16092     16096     16097
     16092     16096     16098     16093     16092     16094     16093     16092     16096
     16094     16092     16096     16096     16098     16099     16096     16098     16100
     16097     16096     16098     16098     16100     16101     16098     16100     16102
     16098     16100     16103     16099     16098     16100     16100     16103     16104
     16100     16103     16105     16100     16103     16106     16101     16100     16102
     16101     16100     16103     16102     16100     16103     16103     16106     16107
     16103     16106     16108     16103     16106     16109     16104     16103     16105
     16104     16103     16106     16105     16103     16106     16106     16109     16110
     16106     16109     16111     16106     16109     16112     16107     16106     16108
     16107     16106     16109     16108     16106     16109     16109     16112     16113
     16109     16112     16114     16109     16112     16115     16110     16109     16111
     16110     16109     16112     16111     16109     16112     16112     16115     16116
     16112     16115     16117     16112     16115     16118     16113     16112     16114
     16113     16112     16115     16114     16112     16115     16115     16118     16119
     16115     16118     16120     16115     16118     16121     16116     16115     16117
     16116     16115     16118     16117     16115     16118     16118     16121     16122
     16118     16121     16123     16118     16121     16124     16119     16118     16120
     16119     16118     16121     16120     16118     16121     16121     16124     16125
     16121     16124     16126     16121     16124     16127     16122     16121     16123
     16122     16121     16124     16123     16121     16124     16124     16127     16128
     16124     16127     16129     16124     16127     16130     16125     16124     16126
     16125     16124     16127     16126     16124     16127     16127     16130     16131
     16127     16130     16132     16127     16130     16133     16128     16127     16129
     16128     16127     16130     16129     16127     16130     16130     16133     16134
     16130     16133     16135     16130     16133     16136     16131     16130     16132
     16131     16130     16133     16132     16130     16133     16133     16136     16137
     16133     16136     16138     16133     16136     16139     16134     16133     16135
     16134     16133     16136     16135     16133     16136     16137     16136     16138
     16137     16136     16139     16138     16136     16139     16140     16142     16143
     16140     16142     16144     16140     16142     16145     16141     16140     16142
     16142     16145     16146     16142     16145     16147     16142     16145     16148
     16143     16142     16144     16143     16142     16145     16144     16142     16145
     16145     16148     16149     16145     16148     16150     16145     16148     16151
     16146     16145     16147     16146     16145     16148     16147     16145     16148
     16148     16151     16152     16148     16151     16153     16148     16151     16154
     16149     16148     16150     16149     16148     16151     16150     16148     16151
     16151     16154     16155     16151     16154     16156     16151     16154     16157
     16152     16151     16153     16152     16151     16154     16153     16151     16154
     16154     16157     16158     16154     16157     16159     16154     16157     16160
     16155     16154     16156     16155     16154     16157     16156     16154     16157
     16157     16160     16161     16157     16160     16162     16157     16160     16163
     16158     16157     16159     16158     16157     16160     16159     16157     16160
     16160     16163     16164     16160     16163     16165     16161     16160     16162
     16161     16160     16163     16162     16160     16163     16163     16165     16166
     16163     16165     16167     16164     16163     16165     16165     16167     16168
     16165     16167     16169     16165     16167     16170     16166     16165     16167
     16167     16170     16171     16167     16170     16172     16167     16170     16173
     16168     16167     16169     16168     16167     16170     16169     16167     16170
     16170     16173     16174     16170     16173     16175     16170     16173     16176
     16171     16170     16172     16171     16170     16173     16172     16170     16173
     16173     16176     16177     16173     16176     16178     16173     16176     16179
     16174     16173     16175     16174     16173     16176     16175     16173     16176
     16176     16179     16180     16176     16179     16181     16176     16179     16182
     16177     16176     16178     16177     16176     16179     16178     16176     16179
     16179     16182     16183     16179     16182     16184     16179     16182     16185
     16180     16179     16181     16180     16179     16182     16181     16179     16182
     16182     16185     16186     16182     16185     16187     16182     16185     16188
     16183     16182     16184     16183     16182     16185     16184     16182     16185
     16185     16188     16189     16185     16188     16190     16185     16188     16191
     16186     16185     16187     16186     16185     16188     16187     16185     16188
     16189     16188     16190     16189     16188     16191     16190     16188     16191
     16192     16196     16197     16192     16196     16198     16192     16196     16199
     16193     16192     16194     16193     16192     16195     16193     16192     16196
     16194     16192     16195     16194     16192     16196     16195     16192     16196
     16196     16199     16200     16196     16199     16201     16196     16199     16205
     16197     16196     16198     16197     16196     16199     16198     16196     16199
     16199     16205     16202     16200     16199     16201     16200     16199     16205
     16201     16199     16205     16202     16206     16207     16203     16202     16204
     16203     16202     16205     16203     16202     16206     16204     16202     16205
     16204     16202     16206     16205     16202     16206     16206     16207     16208
     16206     16207     16209     16206     16207     16210     16207     16210     16211
     16207     16210     16212     16207     16210     16218     16208     16207     16209
     16208     16207     16210     16209     16207     16210     16210     16212     16213
     16210     16218     16219     16210     16218     16220     16210     16218     16221
     16211     16210     16212     16211     16210     16218     16212     16210     16218
     16212     16213     16214     16212     16213     16215     16213     16215     16216
     16213     16215     16217     16213     16215     16227     16214     16213     16215
     16215     16227     16228     16215     16227     16229     16215     16227     16230
     16216     16215     16217     16216     16215     16227     16217     16215     16227
     16218     16221     16222     16219     16218     16220     16219     16218     16221
     16220     16218     16221     16221     16222     16223     16221     16222     16224
     16222     16224     16225     16222     16224     16226     16222     16224     16274
     16223     16222     16224     16224     16274     16275     16224     16274     16276
     16224     16274     16277     16225     16224     16226     16225     16224     16274
     16226     16224     16274     16227     16230     16231     16227     16230     16232
     16227     16230     16233     16228     16227     16229     16228     16227     16230
     16229     16227     16230     16230     16233     16234     16230     16233     16235
     16231     16230     16232     16231     16230     16233     16232     16230     16233
     16233     16235     16236     16233     16235     16237     16234     16233     16235
     16235     16237     16238     16235     16237     16239     16235     16237     16240
     16236     16235     16237     16237     16240     16241     16237     16240     16242
     16238     16237     16239     16238     16237     16240     16239     16237     16240
     16240     16242     16243     16240     16242     16244     16241     16240     16242
     16242     16244     16245     16242     16244     16246     16242     16244     16247
     16243     16242     16244     16244     16247     16248     16244     16247     16249
     16245     16244     16246     16245     16244     16247     16246     16244     16247
     16247     16249     16250     16247     16249     16251     16248     16247     16249
     16249     16251     16252     16249     16251     16253     16249     16251     16254
     16250     16249     16251     16251     16254     16255     16251     16254     16256
     16252     16251     16253     16252     16251     16254     16253     16251     16254
     16254     16256     16257     16254     16256     16258     16255     16254     16256
     16256     16258     16259     16256     16258     16260     16256     16258     16261
     16257     16256     16258     16258     16261     16262     16258     16261     16263
     16258     16261     16264     16259     16258     16260     16259     16258     16261
     16260     16258     16261     16261     16264     16265     16261     16264     16266
     16261     16264     16267     16262     16261     16263     16262     16261     16264
     16263     16261     16264     16264     16267     16268     16264     16267     16269
     16264     16267     16270     16265     16264     16266     16265     16264     16267
     16266     16264     16267     16267     16270     16271     16267     16270     16272
     16267     16270     16273     16268     16267     16269     16268     16267     16270
     16269     16267     16270     16271     16270     16272     16271     16270     16273
     16272     16270     16273     16274     16277     16278     16274     16277     16279
     16274     16277     16280     16275     16274     16276     16275     16274     16277
     16276     16274     16277     16277     16280     16281     16277     16280     16282
     16277     16280     16283     16278     16277     16279     16278     16277     16280
     16279     16277     16280     16280     16283     16284     16280     16283     16285
     16280     16283     16286     16281     16280     16282     16281     16280     16283
     16282     16280     16283     16283     16286     16287     16283     16286     16288
     16283     16286     16289     16284     16283     16285     16284     16283     16286
     16285     16283     16286     16286     16289     16290     16286     16289     16291
     16286     16289     16292     16287     16286     16288     16287     16286     16289
     16288     16286     16289     16289     16292     16293     16289     16292     16294
     16289     16292     16295     16290     16289     16291     16290     16289     16292
     16291     16289     16292     16292     16295     16296     16292     16295     16297
     16292     16295     16298     16293     16292     16294     16293     16292     16295
     16294     16292     16295     16295     16298     16299     16295     16298     16300
     16295     16298     16301     16296     16295     16297     16296     16295     16298
     16297     16295     16298     16298     16301     16302     16298     16301     16303
     16298     16301     16304     16299     16298     16300     16299     16298     16301
     16300     16298     16301     16301     16304     16305     16301     16304     16306
     16301     16304     16307     16302     16301     16303     16302     16301     16304
     16303     16301     16304     16304     16307     16308     16304     16307     16309
     16304     16307     16310     16305     16304     16306     16305     16304     16307
     16306     16304     16307     16307     16310     16311     16307     16310     16312
     16307     16310     16313     16308     16307     16309     16308     16307     16310
     16309     16307     16310     16310     16313     16314     16310     16313     16315
     16310     16313     16316     16311     16310     16312     16311     16310     16313
     16312     16310     16313     16313     16316     16317     16313     16316     16318
     16313     16316     16319     16314     16313     16315     16314     16313     16316
     16315     16313     16316     16316     16319     16320     16316     16319     16321
     16316     16319     16322     16317     16316     16318     16317     16316     16319
     16318     16316     16319     16320     16319     16321     16320     16319     16322
     16321     16319     16322     16323     16325     16326     16323     16327     16328
     16323     16327     16329     16323     16327     16330     16323     16369     16366
     16323     16369     16370     16323     16369     16371     16324     16323     16325
     16324     16323     16327     16324     16323     16369     16325     16323     16327
     16325     16323     16369     16327     16323     16369     16327     16330     16331
     16327     16330     16361     16328     16327     16329     16328     16327     16330
     16329     16327     16330     16330     16331     16332     16330     16331     16333
     16330     16361     16359     16330     16361     16362     16330     16361     16366
     16331     16330     16361     16331     16333     16334     16331     16333     16335
     16331     16333     16336     16332     16331     16333     16333     16336     16337
     16333     16336     16338     16333     16336     16359     16334     16333     16335
     16334     16333     16336     16335     16333     16336     16336     16338     16339
     16336     16338     16340     16336     16338     16348     16336     16359     16356
     16336     16359     16360     16336     16359     16361     16337     16336     16338
     16337     16336     16359     16338     16336     16359     16338     16340     16341
     16338     16340     16342     16338     16340     16343     16338     16348     16346
     16338     16348     16349     16338     16348     16353     16339     16338     16340
     16339     16338     16348     16340     16338     16348     16340     16343     16344
     16340     16343     16345     16340     16343     16346     16341     16340     16342
     16341     16340     16343     16342     16340     16343     16343     16346     16347
     16343     16346     16348     16343     16346     16372     16344     16343     16345
     16344     16343     16346     16345     16343     16346     16346     16348     16349
     16346     16348     16353     16346     16372     16373     16346     16372     16374
     16346     16372     16378     16347     16346     16348     16347     16346     16372
     16348     16346     16372     16348     16349     16350     16348     16349     16351
     16348     16349     16352     16348     16353     16354     16348     16353     16355
     16348     16353     16356     16349     16348     16353     16350     16349     16351
     16350     16349     16352     16351     16349     16352     16353     16356     16357
     16353     16356     16358     16353     16356     16359     16354     16353     16355
     16354     16353     16356     16355     16353     16356     16356     16359     16360
     16356     16359     16361     16357     16356     16358     16357     16356     16359
     16358     16356     16359     16359     16361     16362     16359     16361     16366
     16360     16359     16361     16361     16362     16363     16361     16362     16364
     16361     16362     16365     16361     16366     16367     16361     16366     16368
     16361     16366     16369     16362     16361     16366     16363     16362     16364
     16363     16362     16365     16364     16362     16365     16366     16369     16370
     16366     16369     16371     16367     16366     16368     16367     16366     16369
     16368     16366     16369     16370     16369     16371     16372     16374     16375
     16372     16374     16376     16372     16374     16377     16372     16378     16379
     16372     16378     16380     16372     16378     16381     16373     16372     16374
     16373     16372     16378     16374     16372     16378     16375     16374     16376
     16375     16374     16377     16376     16374     16377     16378     16381     16382
     16378     16381     16383     16378     16381     16384     16379     16378     16380
     16379     16378     16381     16380     16378     16381     16381     16384     16385
     16381     16384     16386     16381     16384     16387     16382     16381     16383
     16382     16381     16384     16383     16381     16384     16384     16387     16388
     16384     16387     16389     16384     16387     16393     16385     16384     16386
     16385     16384     16387     16386     16384     16387     16387     16389     16390
     16387     16389     16391     16387     16389     16392     16387     16393     16394
     16387     16393     16395     16387     16393     16396     16388     16387     16389
     16388     16387     16393     16389     16387     16393     16390     16389     16391
     16390     16389     16392     16391     16389     16392     16394     16393     16395
     16394     16393     16396     16395     16393     16396     16397     16398     16399
     16397     16398     16400     16397     16398     16413     16397     16401     16402
     16397     16401     16403     16397     16401     16404     16397     16405     16406
     16397     16405     16407     16397     16405     16408     16397     16409     16410
     16397     16409     16411     16397     16409     16412     16398     16397     16401
     16398     16397     16405     16398     16397     16409     16398     16413     16414
     16398     16413     16415     16398     16413     16419     16399     16398     16400
     16399     16398     16413     16400     16398     16413     16401     16397     16405
     16401     16397     16409     16402     16401     16403     16402     16401     16404
     16403     16401     16404     16405     16397     16409     16406     16405     16407
     16406     16405     16408     16407     16405     16408     16410     16409     16411
     16410     16409     16412     16411     16409     16412     16413     16419     16416
     16414     16413     16415     16414     16413     16419     16415     16413     16419
     16416     16420     16421     16417     16416     16418     16417     16416     16419
     16417     16416     16420     16418     16416     16419     16418     16416     16420
     16419     16416     16420     16420     16421     16422     16420     16421     16423
     16420     16421     16424     16421     16424     16425     16421     16424     16426
     16421     16424     16432     16422     16421     16423     16422     16421     16424
     16423     16421     16424     16424     16426     16427     16424     16432     16433
     16424     16432     16434     16424     16432     16435     16425     16424     16426
     16425     16424     16432     16426     16424     16432     16426     16427     16428
     16426     16427     16429     16427     16429     16430     16427     16429     16431
     16427     16429     16441     16428     16427     16429     16429     16441     16442
     16429     16441     16443     16429     16441     16444     16430     16429     16431
     16430     16429     16441     16431     16429     16441     16432     16435     16436
     16433     16432     16434     16433     16432     16435     16434     16432     16435
     16435     16436     16437     16435     16436     16438     16436     16438     16439
     16436     16438     16440     16436     16438     16488     16437     16436     16438
     16438     16488     16489     16438     16488     16490     16438     16488     16491
     16439     16438     16440     16439     16438     16488     16440     16438     16488
     16441     16444     16445     16441     16444     16446     16441     16444     16447
     16442     16441     16443     16442     16441     16444     16443     16441     16444
     16444     16447     16448     16444     16447     16449     16444     16447     16450
     16445     16444     16446     16445     16444     16447     16446     16444     16447
     16447     16450     16451     16447     16450     16452     16447     16450     16453
     16448     16447     16449     16448     16447     16450     16449     16447     16450
     16450     16453     16454     16450     16453     16455     16450     16453     16456
     16451     16450     16452     16451     16450     16453     16452     16450     16453
     16453     16456     16457     16453     16456     16458     16453     16456     16459
     16454     16453     16455     16454     16453     16456     16455     16453     16456
     16456     16459     16460     16456     16459     16461     16457     16456     16458
     16457     16456     16459     16458     16456     16459     16459     16461     16462
     16459     16461     16463     16460     16459     16461     16461     16463     16464
     16461     16463     16465     16461     16463     16466     16462     16461     16463
     16463     16466     16467     16463     16466     16468     16463     16466     16469
     16464     16463     16465     16464     16463     16466     16465     16463     16466
     16466     16469     16470     16466     16469     16471     16466     16469     16472
     16467     16466     16468     16467     16466     16469     16468     16466     16469
     16469     16472     16473     16469     16472     16474     16469     16472     16475
     16470     16469     16471     16470     16469     16472     16471     16469     16472
     16472     16475     16476     16472     16475     16477     16472     16475     16478
     16473     16472     16474     16473     16472     16475     16474     16472     16475
     16475     16478     16479     16475     16478     16480     16475     16478     16481
     16476     16475     16477     16476     16475     16478     16477     16475     16478
     16478     16481     16482     16478     16481     16483     16478     16481     16484
     16479     16478     16480     16479     16478     16481     16480     16478     16481
     16481     16484     16485     16481     16484     16486     16481     16484     16487
     16482     16481     16483     16482     16481     16484     16483     16481     16484
     16485     16484     16486     16485     16484     16487     16486     16484     16487
     16488     16491     16492     16488     16491     16493     16488     16491     16494
     16489     16488     16490     16489     16488     16491     16490     16488     16491
     16491     16494     16495     16491     16494     16496     16491     16494     16497
     16492     16491     16493     16492     16491     16494     16493     16491     16494
     16494     16497     16498     16494     16497     16499     16494     16497     16500
     16495     16494     16496     16495     16494     16497     16496     16494     16497
     16497     16500     16501     16497     16500     16502     16497     16500     16503
     16498     16497     16499     16498     16497     16500     16499     16497     16500
     16500     16503     16504     16500     16503     16505     16500     16503     16506
     16501     16500     16502     16501     16500     16503     16502     16500     16503
     16503     16506     16507     16503     16506     16508     16503     16506     16509
     16504     16503     16505     16504     16503     16506     16505     16503     16506
     16506     16509     16510     16506     16509     16511     16506     16509     16512
     16507     16506     16508     16507     16506     16509     16508     16506     16509
     16509     16512     16513     16509     16512     16514     16509     16512     16515
     16510     16509     16511     16510     16509     16512     16511     16509     16512
     16512     16515     16516     16512     16515     16517     16512     16515     16518
     16513     16512     16514     16513     16512     16515     16514     16512     16515
     16515     16518     16519     16515     16518     16520     16515     16518     16521
     16516     16515     16517     16516     16515     16518     16517     16515     16518
     16518     16521     16522     16518     16521     16523     16518     16521     16524
     16519     16518     16520     16519     16518     16521     16520     16518     16521
     16521     16524     16525     16521     16524     16526     16521     16524     16527
     16522     16521     16523     16522     16521     16524     16523     16521     16524
     16524     16527     16528     16524     16527     16529     16524     16527     16530
     16525     16524     16526     16525     16524     16527     16526     16524     16527
     16528     16527     16529     16528     16527     16530     16529     16527     16530
     16531     16532     16533     16531     16532     16534     16531     16532     16547
     16531     16535     16536     16531     16535     16537     16531     16535     16538
     16531     16539     16540     16531     16539     16541     16531     16539     16542
     16531     16543     16544     16531     16543     16545     16531     16543     16546
     16532     16531     16535     16532     16531     16539     16532     16531     16543
     16532     16547     16548     16532     16547     16549     16532     16547     16553
     16533     16532     16534     16533     16532     16547     16534     16532     16547
     16535     16531     16539     16535     16531     16543     16536     16535     16537
     16536     16535     16538     16537     16535     16538     16539     16531     16543
     16540     16539     16541     16540     16539     16542     16541     16539     16542
     16544     16543     16545     16544     16543     16546     16545     16543     16546
     16547     16553     16550     16548     16547     16549     16548     16547     16553
     16549     16547     16553     16550     16554     16555     16551     16550     16552
     16551     16550     16553     16551     16550     16554     16552     16550     16553
     16552     16550     16554     16553     16550     16554     16554     16555     16556
     16554     16555     16557     16554     16555     16558     16555     16558     16559
     16555     16558     16560     16555     16558     16566     16556     16555     16557
     16556     16555     16558     16557     16555     16558     16558     16560     16561
     16558     16566     16567     16558     16566     16568     16558     16566     16569
     16559     16558     16560     16559     16558     16566     16560     16558     16566
     16560     16561     16562     16560     16561     16563     16561     16563     16564
     16561     16563     16565     16561     16563     16575     16562     16561     16563
     16563     16575     16576     16563     16575     16577     16563     16575     16578
     16564     16563     16565     16564     16563     16575     16565     16563     16575
     16566     16569     16570     16567     16566     16568     16567     16566     16569
     16568     16566     16569     16569     16570     16571     16569     16570     16572
     16570     16572     16573     16570     16572     16574     16570     16572     16622
     16571     16570     16572     16572     16622     16623     16572     16622     16624
     16572     16622     16625     16573     16572     16574     16573     16572     16622
     16574     16572     16622     16575     16578     16579     16575     16578     16580
     16575     16578     16581     16576     16575     16577     16576     16575     16578
     16577     16575     16578     16578     16581     16582     16578     16581     16583
     16579     16578     16580     16579     16578     16581     16580     16578     16581
     16581     16583     16584     16581     16583     16585     16582     16581     16583
     16583     16585     16586     16583     16585     16587     16583     16585     16588
     16584     16583     16585     16585     16588     16589     16585     16588     16590
     16586     16585     16587     16586     16585     16588     16587     16585     16588
     16588     16590     16591     16588     16590     16592     16589     16588     16590
     16590     16592     16593     16590     16592     16594     16590     16592     16595
     16591     16590     16592     16592     16595     16596     16592     16595     16597
     16593     16592     16594     16593     16592     16595     16594     16592     16595
     16595     16597     16598     16595     16597     16599     16596     16595     16597
     16597     16599     16600     16597     16599     16601     16597     16599     16602
     16598     16597     16599     16599     16602     16603     16599     16602     16604
     16600     16599     16601     16600     16599     16602     16601     16599     16602
     16602     16604     16605     16602     16604     16606     16603     16602     16604
     16604     16606     16607     16604     16606     16608     16604     16606     16609
     16605     16604     16606     16606     16609     16610     16606     16609     16611
     16606     16609     16612     16607     16606     16608     16607     16606     16609
     16608     16606     16609     16609     16612     16613     16609     16612     16614
     16609     16612     16615     16610     16609     16611     16610     16609     16612
     16611     16609     16612     16612     16615     16616     16612     16615     16617
     16612     16615     16618     16613     16612     16614     16613     16612     16615
     16614     16612     16615     16615     16618     16619     16615     16618     16620
     16615     16618     16621     16616     16615     16617     16616     16615     16618
     16617     16615     16618     16619     16618     16620     16619     16618     16621
     16620     16618     16621     16622     16625     16626     16622     16625     16627
     16622     16625     16628     16623     16622     16624     16623     16622     16625
     16624     16622     16625     16625     16628     16629     16625     16628     16630
     16625     16628     16631     16626     16625     16627     16626     16625     16628
     16627     16625     16628     16628     16631     16632     16628     16631     16633
     16628     16631     16634     16629     16628     16630     16629     16628     16631
     16630     16628     16631     16631     16634     16635     16631     16634     16636
     16631     16634     16637     16632     16631     16633     16632     16631     16634
     16633     16631     16634     16634     16637     16638     16634     16637     16639
     16634     16637     16640     16635     16634     16636     16635     16634     16637
     16636     16634     16637     16637     16640     16641     16637     16640     16642
     16637     16640     16643     16638     16637     16639     16638     16637     16640
     16639     16637     16640     16640     16643     16644     16640     16643     16645
     16640     16643     16646     16641     16640     16642     16641     16640     16643
     16642     16640     16643     16643     16646     16647     16643     16646     16648
     16643     16646     16649     16644     16643     16645     16644     16643     16646
     16645     16643     16646     16646     16649     16650     16646     16649     16651
     16646     16649     16652     16647     16646     16648     16647     16646     16649
     16648     16646     16649     16649     16652     16653     16649     16652     16654
     16649     16652     16655     16650     16649     16651     16650     16649     16652
     16651     16649     16652     16652     16655     16656     16652     16655     16657
     16652     16655     16658     16653     16652     16654     16653     16652     16655
     16654     16652     16655     16655     16658     16659     16655     16658     16660
     16655     16658     16661     16656     16655     16657     16656     16655     16658
     16657     16655     16658     16658     16661     16662     16658     16661     16663
     16658     16661     16664     16659     16658     16660     16659     16658     16661
     16660     16658     16661     16661     16664     16665     16661     16664     16666
     16661     16664     16667     16662     16661     16663     16662     16661     16664
     16663     16661     16664     16664     16667     16668     16664     16667     16669
     16664     16667     16670     16665     16664     16666     16665     16664     16667
     16666     16664     16667     16668     16667     16669     16668     16667     16670
     16669     16667     16670     16671     16672     16673     16671     16672     16674
     16671     16672     16675     16671     16676     16677     16671     16676     16678
     16671     16676     16679     16671     16680     16681     16671     16680     16682
     16671     16680     16683     16671     16684     16685     16671     16684     16686
     16671     16684     16687     16672     16671     16676     16672     16671     16680
     16672     16671     16684     16673     16672     16674     16673     16672     16675
     16674     16672     16675     16676     16671     16680     16676     16671     16684
     16677     16676     16678     16677     16676     16679     16678     16676     16679
     16680     16671     16684     16681     16680     16682     16681     16680     16683
     16682     16680     16683     16684     16687     16688     16684     16687     16689
     16684     16687     16693     16685     16684     16686     16685     16684     16687
     16686     16684     16687     16687     16693     16690     16688     16687     16689
     16688     16687     16693     16689     16687     16693     16690     16694     16695
     16691     16690     16692     16691     16690     16693     16691     16690     16694
     16692     16690     16693     16692     16690     16694     16693     16690     16694
     16694     16695     16696     16694     16695     16697     16694     16695     16698
     16695     16698     16699     16695     16698     16700     16695     16698     16706
     16696     16695     16697     16696     16695     16698     16697     16695     16698
     16698     16700     16701     16698     16706     16707     16698     16706     16708
     16698     16706     16709     16699     16698     16700     16699     16698     16706
     16700     16698     16706     16700     16701     16702     16700     16701     16703
     16701     16703     16704     16701     16703     16705     16701     16703     16715
     16702     16701     16703     16703     16715     16716     16703     16715     16717
     16703     16715     16718     16704     16703     16705     16704     16703     16715
     16705     16703     16715     16706     16709     16710     16707     16706     16708
     16707     16706     16709     16708     16706     16709     16709     16710     16711
     16709     16710     16712     16710     16712     16713     16710     16712     16714
     16710     16712     16760     16711     16710     16712     16712     16760     16761
     16712     16760     16762     16712     16760     16763     16713     16712     16714
     16713     16712     16760     16714     16712     16760     16715     16718     16719
     16715     16718     16720     16715     16718     16721     16716     16715     16717
     16716     16715     16718     16717     16715     16718     16718     16721     16722
     16718     16721     16723     16718     16721     16724     16719     16718     16720
     16719     16718     16721     16720     16718     16721     16721     16724     16725
     16721     16724     16726     16721     16724     16727     16722     16721     16723
     16722     16721     16724     16723     16721     16724     16724     16727     16728
     16724     16727     16729     16724     16727     16730     16725     16724     16726
     16725     16724     16727     16726     16724     16727     16727     16730     16731
     16727     16730     16732     16727     16730     16733     16728     16727     16729
     16728     16727     16730     16729     16727     16730     16730     16733     16734
     16730     16733     16735     16731     16730     16732     16731     16730     16733
     16732     16730     16733     16733     16735     16736     16733     16735     16737
     16734     16733     16735     16735     16737     16738     16735     16737     16739
     16735     16737     16740     16736     16735     16737     16737     16740     16741
     16737     16740     16742     16738     16737     16739     16738     16737     16740
     16739     16737     16740     16740     16742     16743     16740     16742     16744
     16741     16740     16742     16742     16744     16745     16742     16744     16746
     16742     16744     16747     16743     16742     16744     16744     16747     16748
     16744     16747     16749     16744     16747     16750     16745     16744     16746
     16745     16744     16747     16746     16744     16747     16747     16750     16751
     16747     16750     16752     16747     16750     16753     16748     16747     16749
     16748     16747     16750     16749     16747     16750     16750     16753     16754
     16750     16753     16755     16750     16753     16756     16751     16750     16752
     16751     16750     16753     16752     16750     16753     16753     16756     16757
     16753     16756     16758     16753     16756     16759     16754     16753     16755
     16754     16753     16756     16755     16753     16756     16757     16756     16758
     16757     16756     16759     16758     16756     16759     16760     16763     16764
     16760     16763     16765     16760     16763     16766     16761     16760     16762
     16761     16760     16763     16762     16760     16763     16763     16766     16767
     16763     16766     16768     16763     16766     16769     16764     16763     16765
     16764     16763     16766     16765     16763     16766     16766     16769     16770
     16766     16769     16771     16766     16769     16772     16767     16766     16768
     16767     16766     16769     16768     16766     16769     16769     16772     16773
     16769     16772     16774     16769     16772     16775     16770     16769     16771
     16770     16769     16772     16771     16769     16772     16772     16775     16776
     16772     16775     16777     16772     16775     16778     16773     16772     16774
     16773     16772     16775     16774     16772     16775     16775     16778     16779
     16775     16778     16780     16775     16778     16781     16776     16775     16777
     16776     16775     16778     16777     16775     16778     16778     16781     16782
     16778     16781     16783     16778     16781     16784     16779     16778     16780
     16779     16778     16781     16780     16778     16781     16781     16784     16785
     16781     16784     16786     16781     16784     16787     16782     16781     16783
     16782     16781     16784     16783     16781     16784     16784     16787     16788
     16784     16787     16789     16784     16787     16790     16785     16784     16786
     16785     16784     16787     16786     16784     16787     16787     16790     16791
     16787     16790     16792     16787     16790     16793     16788     16787     16789
     16788     16787     16790     16789     16787     16790     16790     16793     16794
     16790     16793     16795     16790     16793     16796     16791     16790     16792
     16791     16790     16793     16792     16790     16793     16793     16796     16797
     16793     16796     16798     16793     16796     16799     16794     16793     16795
     16794     16793     16796     16795     16793     16796     16796     16799     16800
     16796     16799     16801     16796     16799     16802     16797     16796     16798
     16797     16796     16799     16798     16796     16799     16799     16802     16803
     16799     16802     16804     16799     16802     16805     16800     16799     16801
     16800     16799     16802     16801     16799     16802     16802     16805     16806
     16802     16805     16807     16802     16805     16808     16803     16802     16804
     16803     16802     16805     16804     16802     16805     16806     16805     16807
     16806     16805     16808     16807     16805     16808     16809     16811     16812
     16809     16813     16814     16809     16813     16815     16809     16813     16816
     16809     16855     16852     16809     16855     16856     16809     16855     16857
     16810     16809     16811     16810     16809     16813     16810     16809     16855
     16811     16809     16813     16811     16809     16855     16813     16809     16855
     16813     16816     16817     16813     16816     16847     16814     16813     16815
     16814     16813     16816     16815     16813     16816     16816     16817     16818
     16816     16817     16819     16816     16847     16845     16816     16847     16848
     16816     16847     16852     16817     16816     16847     16817     16819     16820
     16817     16819     16821     16817     16819     16822     16818     16817     16819
     16819     16822     16823     16819     16822     16824     16819     16822     16845
     16820     16819     16821     16820     16819     16822     16821     16819     16822
     16822     16824     16825     16822     16824     16826     16822     16824     16834
     16822     16845     16842     16822     16845     16846     16822     16845     16847
     16823     16822     16824     16823     16822     16845     16824     16822     16845
     16824     16826     16827     16824     16826     16828     16824     16826     16829
     16824     16834     16832     16824     16834     16835     16824     16834     16839
     16825     16824     16826     16825     16824     16834     16826     16824     16834
     16826     16829     16830     16826     16829     16831     16826     16829     16832
     16827     16826     16828     16827     16826     16829     16828     16826     16829
     16829     16832     16833     16829     16832     16834     16829     16832     16858
     16830     16829     16831     16830     16829     16832     16831     16829     16832
     16832     16834     16835     16832     16834     16839     16832     16858     16859
     16832     16858     16860     16832     16858     16864     16833     16832     16834
     16833     16832     16858     16834     16832     16858     16834     16835     16836
     16834     16835     16837     16834     16835     16838     16834     16839     16840
     16834     16839     16841     16834     16839     16842     16835     16834     16839
     16836     16835     16837     16836     16835     16838     16837     16835     16838
     16839     16842     16843     16839     16842     16844     16839     16842     16845
     16840     16839     16841     16840     16839     16842     16841     16839     16842
     16842     16845     16846     16842     16845     16847     16843     16842     16844
     16843     16842     16845     16844     16842     16845     16845     16847     16848
     16845     16847     16852     16846     16845     16847     16847     16848     16849
     16847     16848     16850     16847     16848     16851     16847     16852     16853
     16847     16852     16854     16847     16852     16855     16848     16847     16852
     16849     16848     16850     16849     16848     16851     16850     16848     16851
     16852     16855     16856     16852     16855     16857     16853     16852     16854
     16853     16852     16855     16854     16852     16855     16856     16855     16857
     16858     16860     16861     16858     16860     16862     16858     16860     16863
     16858     16864     16865     16858     16864     16866     16858     16864     16867
     16859     16858     16860     16859     16858     16864     16860     16858     16864
     16861     16860     16862     16861     16860     16863     16862     16860     16863
     16864     16867     16868     16864     16867     16869     16864     16867     16870
     16865     16864     16866     16865     16864     16867     16866     16864     16867
     16867     16870     16871     16867     16870     16872     16867     16870     16873
     16868     16867     16869     16868     16867     16870     16869     16867     16870
     16870     16873     16874     16870     16873     16875     16870     16873     16879
     16871     16870     16872     16871     16870     16873     16872     16870     16873
     16873     16875     16876     16873     16875     16877     16873     16875     16878
     16873     16879     16880     16873     16879     16881     16873     16879     16882
     16874     16873     16875     16874     16873     16879     16875     16873     16879
     16876     16875     16877     16876     16875     16878     16877     16875     16878
     16880     16879     16881     16880     16879     16882     16881     16879     16882
     16883     16887     16888     16883     16887     16889     16883     16887     16890
     16884     16883     16885     16884     16883     16886     16884     16883     16887
     16885     16883     16886     16885     16883     16887     16886     16883     16887
     16887     16890     16891     16887     16890     16892     16887     16890     16896
     16888     16887     16889     16888     16887     16890     16889     16887     16890
     16890     16896     16893     16891     16890     16892     16891     16890     16896
     16892     16890     16896     16893     16897     16898     16894     16893     16895
     16894     16893     16896     16894     16893     16897     16895     16893     16896
     16895     16893     16897     16896     16893     16897     16897     16898     16899
     16897     16898     16900     16897     16898     16901     16898     16901     16902
     16898     16901     16903     16898     16901     16909     16899     16898     16900
     16899     16898     16901     16900     16898     16901     16901     16903     16904
     16901     16909     16910     16901     16909     16911     16901     16909     16912
     16902     16901     16903     16902     16901     16909     16903     16901     16909
     16903     16904     16905     16903     16904     16906     16904     16906     16907
     16904     16906     16908     16904     16906     16918     16905     16904     16906
     16906     16918     16919     16906     16918     16920     16906     16918     16921
     16907     16906     16908     16907     16906     16918     16908     16906     16918
     16909     16912     16913     16910     16909     16911     16910     16909     16912
     16911     16909     16912     16912     16913     16914     16912     16913     16915
     16913     16915     16916     16913     16915     16917     16913     16915     16965
     16914     16913     16915     16915     16965     16966     16915     16965     16967
     16915     16965     16968     16916     16915     16917     16916     16915     16965
     16917     16915     16965     16918     16921     16922     16918     16921     16923
     16918     16921     16924     16919     16918     16920     16919     16918     16921
     16920     16918     16921     16921     16924     16925     16921     16924     16926
     16921     16924     16927     16922     16921     16923     16922     16921     16924
     16923     16921     16924     16924     16927     16928     16924     16927     16929
     16924     16927     16930     16925     16924     16926     16925     16924     16927
     16926     16924     16927     16927     16930     16931     16927     16930     16932
     16927     16930     16933     16928     16927     16929     16928     16927     16930
     16929     16927     16930     16930     16933     16934     16930     16933     16935
     16930     16933     16936     16931     16930     16932     16931     16930     16933
     16932     16930     16933     16933     16936     16937     16933     16936     16938
     16934     16933     16935     16934     16933     16936     16935     16933     16936
     16936     16938     16939     16936     16938     16940     16937     16936     16938
     16938     16940     16941     16938     16940     16942     16938     16940     16943
     16939     16938     16940     16940     16943     16944     16940     16943     16945
     16940     16943     16946     16941     16940     16942     16941     16940     16943
     16942     16940     16943     16943     16946     16947     16943     16946     16948
     16943     16946     16949     16944     16943     16945     16944     16943     16946
     16945     16943     16946     16946     16949     16950     16946     16949     16951
     16946     16949     16952     16947     16946     16948     16947     16946     16949
     16948     16946     16949     16949     16952     16953     16949     16952     16954
     16949     16952     16955     16950     16949     16951     16950     16949     16952
     16951     16949     16952     16952     16955     16956     16952     16955     16957
     16952     16955     16958     16953     16952     16954     16953     16952     16955
     16954     16952     16955     16955     16958     16959     16955     16958     16960
     16955     16958     16961     16956     16955     16957     16956     16955     16958
     16957     16955     16958     16958     16961     16962     16958     16961     16963
     16958     16961     16964     16959     16958     16960     16959     16958     16961
     16960     16958     16961     16962     16961     16963     16962     16961     16964
     16963     16961     16964     16965     16968     16969     16965     16968     16970
     16965     16968     16971     16966     16965     16967     16966     16965     16968
     16967     16965     16968     16968     16971     16972     16968     16971     16973
     16968     16971     16974     16969     16968     16970     16969     16968     16971
     16970     16968     16971     16971     16974     16975     16971     16974     16976
     16971     16974     16977     16972     16971     16973     16972     16971     16974
     16973     16971     16974     16974     16977     16978     16974     16977     16979
     16974     16977     16980     16975     16974     16976     16975     16974     16977
     16976     16974     16977     16977     16980     16981     16977     16980     16982
     16977     16980     16983     16978     16977     16979     16978     16977     16980
     16979     16977     16980     16980     16983     16984     16980     16983     16985
     16980     16983     16986     16981     16980     16982     16981     16980     16983
     16982     16980     16983     16983     16986     16987     16983     16986     16988
     16983     16986     16989     16984     16983     16985     16984     16983     16986
     16985     16983     16986     16986     16989     16990     16986     16989     16991
     16986     16989     16992     16987     16986     16988     16987     16986     16989
     16988     16986     16989     16989     16992     16993     16989     16992     16994
     16989     16992     16995     16990     16989     16991     16990     16989     16992
     16991     16989     16992     16992     16995     16996     16992     16995     16997
     16992     16995     16998     16993     16992     16994     16993     16992     16995
     16994     16992     16995     16995     16998     16999     16995     16998     17000
     16995     16998     17001     16996     16995     16997     16996     16995     16998
     16997     16995     16998     16998     17001     17002     16998     17001     17003
     16998     17001     17004     16999     16998     17000     16999     16998     17001
     17000     16998     17001     17001     17004     17005     17001     17004     17006
     17001     17004     17007     17002     17001     17003     17002     17001     17004
     17003     17001     17004     17004     17007     17008     17004     17007     17009
     17004     17007     17010     17005     17004     17006     17005     17004     17007
     17006     17004     17007     17007     17010     17011     17007     17010     17012
     17007     17010     17013     17008     17007     17009     17008     17007     17010
     17009     17007     17010     17011     17010     17012     17011     17010     17013
     17012     17010     17013     17014     17018     17019     17014     17018     17020
     17014     17018     17021     17015     17014     17016     17015     17014     17017
     17015     17014     17018     17016     17014     17017     17016     17014     17018
     17017     17014     17018     17018     17021     17022     17018     17021     17023
     17018     17021     17027     17019     17018     17020     17019     17018     17021
     17020     17018     17021     17021     17027     17024     17022     17021     17023
     17022     17021     17027     17023     17021     17027     17024     17028     17029
     17025     17024     17026     17025     17024     17027     17025     17024     17028
     17026     17024     17027     17026     17024     17028     17027     17024     17028
     17028     17029     17030     17028     17029     17031     17028     17029     17032
     17029     17032     17033     17029     17032     17034     17029     17032     17040
     17030     17029     17031     17030     17029     17032     17031     17029     17032
     17032     17034     17035     17032     17040     17041     17032     17040     17042
     17032     17040     17043     17033     17032     17034     17033     17032     17040
     17034     17032     17040     17034     17035     17036     17034     17035     17037
     17035     17037     17038     17035     17037     17039     17035     17037     17049
     17036     17035     17037     17037     17049     17050     17037     17049     17051
     17037     17049     17052     17038     17037     17039     17038     17037     17049
     17039     17037     17049     17040     17043     17044     17041     17040     17042
     17041     17040     17043     17042     17040     17043     17043     17044     17045
     17043     17044     17046     17044     17046     17047     17044     17046     17048
     17044     17046     17096     17045     17044     17046     17046     17096     17097
     17046     17096     17098     17046     17096     17099     17047     17046     17048
     17047     17046     17096     17048     17046     17096     17049     17052     17053
     17049     17052     17054     17049     17052     17055     17050     17049     17051
     17050     17049     17052     17051     17049     17052     17052     17055     17056
     17052     17055     17057     17053     17052     17054     17053     17052     17055
     17054     17052     17055     17055     17057     17058     17055     17057     17059
     17056     17055     17057     17057     17059     17060     17057     17059     17061
     17057     17059     17062     17058     17057     17059     17059     17062     17063
     17059     17062     17064     17060     17059     17061     17060     17059     17062
     17061     17059     17062     17062     17064     17065     17062     17064     17066
     17063     17062     17064     17064     17066     17067     17064     17066     17068
     17064     17066     17069     17065     17064     17066     17066     17069     17070
     17066     17069     17071     17067     17066     17068     17067     17066     17069
     17068     17066     17069     17069     17071     17072     17069     17071     17073
     17070     17069     17071     17071     17073     17074     17071     17073     17075
     17071     17073     17076     17072     17071     17073     17073     17076     17077
     17073     17076     17078     17074     17073     17075     17074     17073     17076
     17075     17073     17076     17076     17078     17079     17076     17078     17080
     17077     17076     17078     17078     17080     17081     17078     17080     17082
     17078     17080     17083     17079     17078     17080     17080     17083     17084
     17080     17083     17085     17080     17083     17086     17081     17080     17082
     17081     17080     17083     17082     17080     17083     17083     17086     17087
     17083     17086     17088     17083     17086     17089     17084     17083     17085
     17084     17083     17086     17085     17083     17086     17086     17089     17090
     17086     17089     17091     17086     17089     17092     17087     17086     17088
     17087     17086     17089     17088     17086     17089     17089     17092     17093
     17089     17092     17094     17089     17092     17095     17090     17089     17091
     17090     17089     17092     17091     17089     17092     17093     17092     17094
     17093     17092     17095     17094     17092     17095     17096     17099     17100
     17096     17099     17101     17096     17099     17102     17097     17096     17098
     17097     17096     17099     17098     17096     17099     17099     17102     17103
     17099     17102     17104     17099     17102     17105     17100     17099     17101
     17100     17099     17102     17101     17099     17102     17102     17105     17106
     17102     17105     17107     17102     17105     17108     17103     17102     17104
     17103     17102     17105     17104     17102     17105     17105     17108     17109
     17105     17108     17110     17105     17108     17111     17106     17105     17107
     17106     17105     17108     17107     17105     17108     17108     17111     17112
     17108     17111     17113     17108     17111     17114     17109     17108     17110
     17109     17108     17111     17110     17108     17111     17111     17114     17115
     17111     17114     17116     17111     17114     17117     17112     17111     17113
     17112     17111     17114     17113     17111     17114     17114     17117     17118
     17114     17117     17119     17114     17117     17120     17115     17114     17116
     17115     17114     17117     17116     17114     17117     17117     17120     17121
     17117     17120     17122     17117     17120     17123     17118     17117     17119
     17118     17117     17120     17119     17117     17120     17120     17123     17124
     17120     17123     17125     17120     17123     17126     17121     17120     17122
     17121     17120     17123     17122     17120     17123     17123     17126     17127
     17123     17126     17128     17123     17126     17129     17124     17123     17125
     17124     17123     17126     17125     17123     17126     17126     17129     17130
     17126     17129     17131     17126     17129     17132     17127     17126     17128
     17127     17126     17129     17128     17126     17129     17129     17132     17133
     17129     17132     17134     17129     17132     17135     17130     17129     17131
     17130     17129     17132     17131     17129     17132     17132     17135     17136
     17132     17135     17137     17132     17135     17138     17133     17132     17134
     17133     17132     17135     17134     17132     17135     17135     17138     17139
     17135     17138     17140     17135     17138     17141     17136     17135     17137
     17136     17135     17138     17137     17135     17138     17138     17141     17142
     17138     17141     17143     17138     17141     17144     17139     17138     17140
     17139     17138     17141     17140     17138     17141     17142     17141     17143
     17142     17141     17144     17143     17141     17144     17145     17147     17148
     17145     17149     17150     17145     17149     17151     17145     17149     17152
     17145     17191     17188     17145     17191     17192     17145     17191     17193
     17146     17145     17147     17146     17145     17149     17146     17145     17191
     17147     17145     17149     17147     17145     17191     17149     17145     17191
     17149     17152     17153     17149     17152     17183     17150     17149     17151
     17150     17149     17152     17151     17149     17152     17152     17153     17154
     17152     17153     17155     17152     17183     17181     17152     17183     17184
     17152     17183     17188     17153     17152     17183     17153     17155     17156
     17153     17155     17157     17153     17155     17158     17154     17153     17155
     17155     17158     17159     17155     17158     17160     17155     17158     17181
     17156     17155     17157     17156     17155     17158     17157     17155     17158
     17158     17160     17161     17158     17160     17162     17158     17160     17170
     17158     17181     17178     17158     17181     17182     17158     17181     17183
     17159     17158     17160     17159     17158     17181     17160     17158     17181
     17160     17162     17163     17160     17162     17164     17160     17162     17165
     17160     17170     17168     17160     17170     17171     17160     17170     17175
     17161     17160     17162     17161     17160     17170     17162     17160     17170
     17162     17165     17166     17162     17165     17167     17162     17165     17168
     17163     17162     17164     17163     17162     17165     17164     17162     17165
     17165     17168     17169     17165     17168     17170     17165     17168     17194
     17166     17165     17167     17166     17165     17168     17167     17165     17168
     17168     17170     17171     17168     17170     17175     17168     17194     17195
     17168     17194     17196     17168     17194     17200     17169     17168     17170
     17169     17168     17194     17170     17168     17194     17170     17171     17172
     17170     17171     17173     17170     17171     17174     17170     17175     17176
     17170     17175     17177     17170     17175     17178     17171     17170     17175
     17172     17171     17173     17172     17171     17174     17173     17171     17174
     17175     17178     17179     17175     17178     17180     17175     17178     17181
     17176     17175     17177     17176     17175     17178     17177     17175     17178
     17178     17181     17182     17178     17181     17183     17179     17178     17180
     17179     17178     17181     17180     17178     17181     17181     17183     17184
     17181     17183     17188     17182     17181     17183     17183     17184     17185
     17183     17184     17186     17183     17184     17187     17183     17188     17189
     17183     17188     17190     17183     17188     17191     17184     17183     17188
     17185     17184     17186     17185     17184     17187     17186     17184     17187
     17188     17191     17192     17188     17191     17193     17189     17188     17190
     17189     17188     17191     17190     17188     17191     17192     17191     17193
     17194     17196     17197     17194     17196     17198     17194     17196     17199
     17194     17200     17201     17194     17200     17202     17194     17200     17203
     17195     17194     17196     17195     17194     17200     17196     17194     17200
     17197     17196     17198     17197     17196     17199     17198     17196     17199
     17200     17203     17204     17200     17203     17205     17200     17203     17206
     17201     17200     17202     17201     17200     17203     17202     17200     17203
     17203     17206     17207     17203     17206     17208     17203     17206     17209
     17204     17203     17205     17204     17203     17206     17205     17203     17206
     17206     17209     17210     17206     17209     17211     17206     17209     17215
     17207     17206     17208     17207     17206     17209     17208     17206     17209
     17209     17211     17212     17209     17211     17213     17209     17211     17214
     17209     17215     17216     17209     17215     17217     17209     17215     17218
     17210     17209     17211     17210     17209     17215     17211     17209     17215
     17212     17211     17213     17212     17211     17214     17213     17211     17214
     17216     17215     17217     17216     17215     17218     17217     17215     17218
     17219     17220     17221     17219     17220     17222     17219     17220     17235
     17219     17223     17224     17219     17223     17225     17219     17223     17226
     17219     17227     17228     17219     17227     17229     17219     17227     17230
     17219     17231     17232     17219     17231     17233     17219     17231     17234
     17220     17219     17223     17220     17219     17227     17220     17219     17231
     17220     17235     17236     17220     17235     17237     17220     17235     17241
     17221     17220     17222     17221     17220     17235     17222     17220     17235
     17223     17219     17227     17223     17219     17231     17224     17223     17225
     17224     17223     17226     17225     17223     17226     17227     17219     17231
     17228     17227     17229     17228     17227     17230     17229     17227     17230
     17232     17231     17233     17232     17231     17234     17233     17231     17234
     17235     17241     17238     17236     17235     17237     17236     17235     17241
     17237     17235     17241     17238     17242     17243     17239     17238     17240
     17239     17238     17241     17239     17238     17242     17240     17238     17241
     17240     17238     17242     17241     17238     17242     17242     17243     17244
     17242     17243     17245     17242     17243     17246     17243     17246     17247
     17243     17246     17248     17243     17246     17254     17244     17243     17245
     17244     17243     17246     17245     17243     17246     17246     17248     17249
     17246     17254     17255     17246     17254     17256     17246     17254     17257
     17247     17246     17248     17247     17246     17254     17248     17246     17254
     17248     17249     17250     17248     17249     17251     17249     17251     17252
     17249     17251     17253     17249     17251     17263     17250     17249     17251
     17251     17263     17264     17251     17263     17265     17251     17263     17266
     17252     17251     17253     17252     17251     17263     17253     17251     17263
     17254     17257     17258     17255     17254     17256     17255     17254     17257
     17256     17254     17257     17257     17258     17259     17257     17258     17260
     17258     17260     17261     17258     17260     17262     17258     17260     17310
     17259     17258     17260     17260     17310     17311     17260     17310     17312
     17260     17310     17313     17261     17260     17262     17261     17260     17310
     17262     17260     17310     17263     17266     17267     17263     17266     17268
     17263     17266     17269     17264     17263     17265     17264     17263     17266
     17265     17263     17266     17266     17269     17270     17266     17269     17271
     17267     17266     17268     17267     17266     17269     17268     17266     17269
     17269     17271     17272     17269     17271     17273     17270     17269     17271
     17271     17273     17274     17271     17273     17275     17271     17273     17276
     17272     17271     17273     17273     17276     17277     17273     17276     17278
     17274     17273     17275     17274     17273     17276     17275     17273     17276
     17276     17278     17279     17276     17278     17280     17277     17276     17278
     17278     17280     17281     17278     17280     17282     17278     17280     17283
     17279     17278     17280     17280     17283     17284     17280     17283     17285
     17281     17280     17282     17281     17280     17283     17282     17280     17283
     17283     17285     17286     17283     17285     17287     17284     17283     17285
     17285     17287     17288     17285     17287     17289     17285     17287     17290
     17286     17285     17287     17287     17290     17291     17287     17290     17292
     17288     17287     17289     17288     17287     17290     17289     17287     17290
     17290     17292     17293     17290     17292     17294     17291     17290     17292
     17292     17294     17295     17292     17294     17296     17292     17294     17297
     17293     17292     17294     17294     17297     17298     17294     17297     17299
     17294     17297     17300     17295     17294     17296     17295     17294     17297
     17296     17294     17297     17297     17300     17301     17297     17300     17302
     17297     17300     17303     17298     17297     17299     17298     17297     17300
     17299     17297     17300     17300     17303     17304     17300     17303     17305
     17300     17303     17306     17301     17300     17302     17301     17300     17303
     17302     17300     17303     17303     17306     17307     17303     17306     17308
     17303     17306     17309     17304     17303     17305     17304     17303     17306
     17305     17303     17306     17307     17306     17308     17307     17306     17309
     17308     17306     17309     17310     17313     17314     17310     17313     17315
     17310     17313     17316     17311     17310     17312     17311     17310     17313
     17312     17310     17313     17313     17316     17317     17313     17316     17318
     17313     17316     17319     17314     17313     17315     17314     17313     17316
     17315     17313     17316     17316     17319     17320     17316     17319     17321
     17316     17319     17322     17317     17316     17318     17317     17316     17319
     17318     17316     17319     17319     17322     17323     17319     17322     17324
     17319     17322     17325     17320     17319     17321     17320     17319     17322
     17321     17319     17322     17322     17325     17326     17322     17325     17327
     17322     17325     17328     17323     17322     17324     17323     17322     17325
     17324     17322     17325     17325     17328     17329     17325     17328     17330
     17325     17328     17331     17326     17325     17327     17326     17325     17328
     17327     17325     17328     17328     17331     17332     17328     17331     17333
     17328     17331     17334     17329     17328     17330     17329     17328     17331
     17330     17328     17331     17331     17334     17335     17331     17334     17336
     17331     17334     17337     17332     17331     17333     17332     17331     17334
     17333     17331     17334     17334     17337     17338     17334     17337     17339
     17334     17337     17340     17335     17334     17336     17335     17334     17337
     17336     17334     17337     17337     17340     17341     17337     17340     17342
     17337     17340     17343     17338     17337     17339     17338     17337     17340
     17339     17337     17340     17340     17343     17344     17340     17343     17345
     17340     17343     17346     17341     17340     17342     17341     17340     17343
     17342     17340     17343     17343     17346     17347     17343     17346     17348
     17343     17346     17349     17344     17343     17345     17344     17343     17346
     17345     17343     17346     17346     17349     17350     17346     17349     17351
     17346     17349     17352     17347     17346     17348     17347     17346     17349
     17348     17346     17349     17349     17352     17353     17349     17352     17354
     17349     17352     17355     17350     17349     17351     17350     17349     17352
     17351     17349     17352     17352     17355     17356     17352     17355     17357
     17352     17355     17358     17353     17352     17354     17353     17352     17355
     17354     17352     17355     17356     17355     17357     17356     17355     17358
     17357     17355     17358     17359     17361     17362     17359     17363     17364
     17359     17363     17365     17359     17363     17366     17359     17405     17402
     17359     17405     17406     17359     17405     17407     17360     17359     17361
     17360     17359     17363     17360     17359     17405     17361     17359     17363
     17361     17359     17405     17363     17359     17405     17363     17366     17367
     17363     17366     17397     17364     17363     17365     17364     17363     17366
     17365     17363     17366     17366     17367     17368     17366     17367     17369
     17366     17397     17395     17366     17397     17398     17366     17397     17402
     17367     17366     17397     17367     17369     17370     17367     17369     17371
     17367     17369     17372     17368     17367     17369     17369     17372     17373
     17369     17372     17374     17369     17372     17395     17370     17369     17371
     17370     17369     17372     17371     17369     17372     17372     17374     17375
     17372     17374     17376     17372     17374     17384     17372     17395     17392
     17372     17395     17396     17372     17395     17397     17373     17372     17374
     17373     17372     17395     17374     17372     17395     17374     17376     17377
     17374     17376     17378     17374     17376     17379     17374     17384     17382
     17374     17384     17385     17374     17384     17389     17375     17374     17376
     17375     17374     17384     17376     17374     17384     17376     17379     17380
     17376     17379     17381     17376     17379     17382     17377     17376     17378
     17377     17376     17379     17378     17376     17379     17379     17382     17383
     17379     17382     17384     17379     17382     17408     17380     17379     17381
     17380     17379     17382     17381     17379     17382     17382     17384     17385
     17382     17384     17389     17382     17408     17409     17382     17408     17410
     17382     17408     17414     17383     17382     17384     17383     17382     17408
     17384     17382     17408     17384     17385     17386     17384     17385     17387
     17384     17385     17388     17384     17389     17390     17384     17389     17391
     17384     17389     17392     17385     17384     17389     17386     17385     17387
     17386     17385     17388     17387     17385     17388     17389     17392     17393
     17389     17392     17394     17389     17392     17395     17390     17389     17391
     17390     17389     17392     17391     17389     17392     17392     17395     17396
     17392     17395     17397     17393     17392     17394     17393     17392     17395
     17394     17392     17395     17395     17397     17398     17395     17397     17402
     17396     17395     17397     17397     17398     17399     17397     17398     17400
     17397     17398     17401     17397     17402     17403     17397     17402     17404
     17397     17402     17405     17398     17397     17402     17399     17398     17400
     17399     17398     17401     17400     17398     17401     17402     17405     17406
     17402     17405     17407     17403     17402     17404     17403     17402     17405
     17404     17402     17405     17406     17405     17407     17408     17410     17411
     17408     17410     17412     17408     17410     17413     17408     17414     17415
     17408     17414     17416     17408     17414     17417     17409     17408     17410
     17409     17408     17414     17410     17408     17414     17411     17410     17412
     17411     17410     17413     17412     17410     17413     17414     17417     17418
     17414     17417     17419     17414     17417     17420     17415     17414     17416
     17415     17414     17417     17416     17414     17417     17417     17420     17421
     17417     17420     17422     17417     17420     17423     17418     17417     17419
     17418     17417     17420     17419     17417     17420     17420     17423     17424
     17420     17423     17425     17420     17423     17429     17421     17420     17422
     17421     17420     17423     17422     17420     17423     17423     17425     17426
     17423     17425     17427     17423     17425     17428     17423     17429     17430
     17423     17429     17431     17423     17429     17432     17424     17423     17425
     17424     17423     17429     17425     17423     17429     17426     17425     17427
     17426     17425     17428     17427     17425     17428     17430     17429     17431
     17430     17429     17432     17431     17429     17432     17433     17435     17436
     17433     17437     17438     17433     17437     17439     17433     17437     17440
     17433     17479     17476     17433     17479     17480     17433     17479     17481
     17434     17433     17435     17434     17433     17437     17434     17433     17479
     17435     17433     17437     17435     17433     17479     17437     17433     17479
     17437     17440     17441     17437     17440     17471     17438     17437     17439
     17438     17437     17440     17439     17437     17440     17440     17441     17442
     17440     17441     17443     17440     17471     17469     17440     17471     17472
     17440     17471     17476     17441     17440     17471     17441     17443     17444
     17441     17443     17445     17441     17443     17446     17442     17441     17443
     17443     17446     17447     17443     17446     17448     17443     17446     17469
     17444     17443     17445     17444     17443     17446     17445     17443     17446
     17446     17448     17449     17446     17448     17450     17446     17448     17458
     17446     17469     17466     17446     17469     17470     17446     17469     17471
     17447     17446     17448     17447     17446     17469     17448     17446     17469
     17448     17450     17451     17448     17450     17452     17448     17450     17453
     17448     17458     17456     17448     17458     17459     17448     17458     17463
     17449     17448     17450     17449     17448     17458     17450     17448     17458
     17450     17453     17454     17450     17453     17455     17450     17453     17456
     17451     17450     17452     17451     17450     17453     17452     17450     17453
     17453     17456     17457     17453     17456     17458     17453     17456     17482
     17454     17453     17455     17454     17453     17456     17455     17453     17456
     17456     17458     17459     17456     17458     17463     17456     17482     17483
     17456     17482     17484     17456     17482     17488     17457     17456     17458
     17457     17456     17482     17458     17456     17482     17458     17459     17460
     17458     17459     17461     17458     17459     17462     17458     17463     17464
     17458     17463     17465     17458     17463     17466     17459     17458     17463
     17460     17459     17461     17460     17459     17462     17461     17459     17462
     17463     17466     17467     17463     17466     17468     17463     17466     17469
     17464     17463     17465     17464     17463     17466     17465     17463     17466
     17466     17469     17470     17466     17469     17471     17467     17466     17468
     17467     17466     17469     17468     17466     17469     17469     17471     17472
     17469     17471     17476     17470     17469     17471     17471     17472     17473
     17471     17472     17474     17471     17472     17475     17471     17476     17477
     17471     17476     17478     17471     17476     17479     17472     17471     17476
     17473     17472     17474     17473     17472     17475     17474     17472     17475
     17476     17479     17480     17476     17479     17481     17477     17476     17478
     17477     17476     17479     17478     17476     17479     17480     17479     17481
     17482     17484     17485     17482     17484     17486     17482     17484     17487
     17482     17488     17489     17482     17488     17490     17482     17488     17491
     17483     17482     17484     17483     17482     17488     17484     17482     17488
     17485     17484     17486     17485     17484     17487     17486     17484     17487
     17488     17491     17492     17488     17491     17493     17488     17491     17494
     17489     17488     17490     17489     17488     17491     17490     17488     17491
     17491     17494     17495     17491     17494     17496     17491     17494     17497
     17492     17491     17493     17492     17491     17494     17493     17491     17494
     17494     17497     17498     17494     17497     17499     17494     17497     17503
     17495     17494     17496     17495     17494     17497     17496     17494     17497
     17497     17499     17500     17497     17499     17501     17497     17499     17502
     17497     17503     17504     17497     17503     17505     17497     17503     17506
     17498     17497     17499     17498     17497     17503     17499     17497     17503
     17500     17499     17501     17500     17499     17502     17501     17499     17502
     17504     17503     17505     17504     17503     17506     17505     17503     17506
     17507     17511     17512     17507     17511     17513     17507     17511     17514
     17508     17507     17509     17508     17507     17510     17508     17507     17511
     17509     17507     17510     17509     17507     17511     17510     17507     17511
     17511     17514     17515     17511     17514     17516     17511     17514     17520
     17512     17511     17513     17512     17511     17514     17513     17511     17514
     17514     17520     17517     17515     17514     17516     17515     17514     17520
     17516     17514     17520     17517     17521     17522     17518     17517     17519
     17518     17517     17520     17518     17517     17521     17519     17517     17520
     17519     17517     17521     17520     17517     17521     17521     17522     17523
     17521     17522     17524     17521     17522     17525     17522     17525     17526
     17522     17525     17527     17522     17525     17533     17523     17522     17524
     17523     17522     17525     17524     17522     17525     17525     17527     17528
     17525     17533     17534     17525     17533     17535     17525     17533     17536
     17526     17525     17527     17526     17525     17533     17527     17525     17533
     17527     17528     17529     17527     17528     17530     17528     17530     17531
     17528     17530     17532     17528     17530     17542     17529     17528     17530
     17530     17542     17543     17530     17542     17544     17530     17542     17545
     17531     17530     17532     17531     17530     17542     17532     17530     17542
     17533     17536     17537     17534     17533     17535     17534     17533     17536
     17535     17533     17536     17536     17537     17538     17536     17537     17539
     17537     17539     17540     17537     17539     17541     17537     17539     17589
     17538     17537     17539     17539     17589     17590     17539     17589     17591
     17539     17589     17592     17540     17539     17541     17540     17539     17589
     17541     17539     17589     17542     17545     17546     17542     17545     17547
     17542     17545     17548     17543     17542     17544     17543     17542     17545
     17544     17542     17545     17545     17548     17549     17545     17548     17550
     17546     17545     17547     17546     17545     17548     17547     17545     17548
     17548     17550     17551     17548     17550     17552     17549     17548     17550
     17550     17552     17553     17550     17552     17554     17550     17552     17555
     17551     17550     17552     17552     17555     17556     17552     17555     17557
     17553     17552     17554     17553     17552     17555     17554     17552     17555
     17555     17557     17558     17555     17557     17559     17556     17555     17557
     17557     17559     17560     17557     17559     17561     17557     17559     17562
     17558     17557     17559     17559     17562     17563     17559     17562     17564
     17560     17559     17561     17560     17559     17562     17561     17559     17562
     17562     17564     17565     17562     17564     17566     17563     17562     17564
     17564     17566     17567     17564     17566     17568     17564     17566     17569
     17565     17564     17566     17566     17569     17570     17566     17569     17571
     17567     17566     17568     17567     17566     17569     17568     17566     17569
     17569     17571     17572     17569     17571     17573     17570     17569     17571
     17571     17573     17574     17571     17573     17575     17571     17573     17576
     17572     17571     17573     17573     17576     17577     17573     17576     17578
     17573     17576     17579     17574     17573     17575     17574     17573     17576
     17575     17573     17576     17576     17579     17580     17576     17579     17581
     17576     17579     17582     17577     17576     17578     17577     17576     17579
     17578     17576     17579     17579     17582     17583     17579     17582     17584
     17579     17582     17585     17580     17579     17581     17580     17579     17582
     17581     17579     17582     17582     17585     17586     17582     17585     17587
     17582     17585     17588     17583     17582     17584     17583     17582     17585
     17584     17582     17585     17586     17585     17587     17586     17585     17588
     17587     17585     17588     17589     17592     17593     17589     17592     17594
     17589     17592     17595     17590     17589     17591     17590     17589     17592
     17591     17589     17592     17592     17595     17596     17592     17595     17597
     17592     17595     17598     17593     17592     17594     17593     17592     17595
     17594     17592     17595     17595     17598     17599     17595     17598     17600
     17595     17598     17601     17596     17595     17597     17596     17595     17598
     17597     17595     17598     17598     17601     17602     17598     17601     17603
     17598     17601     17604     17599     17598     17600     17599     17598     17601
     17600     17598     17601     17601     17604     17605     17601     17604     17606
     17601     17604     17607     17602     17601     17603     17602     17601     17604
     17603     17601     17604     17604     17607     17608     17604     17607     17609
     17604     17607     17610     17605     17604     17606     17605     17604     17607
     17606     17604     17607     17607     17610     17611     17607     17610     17612
     17607     17610     17613     17608     17607     17609     17608     17607     17610
     17609     17607     17610     17610     17613     17614     17610     17613     17615
     17610     17613     17616     17611     17610     17612     17611     17610     17613
     17612     17610     17613     17613     17616     17617     17613     17616     17618
     17613     17616     17619     17614     17613     17615     17614     17613     17616
     17615     17613     17616     17616     17619     17620     17616     17619     17621
     17616     17619     17622     17617     17616     17618     17617     17616     17619
     17618     17616     17619     17619     17622     17623     17619     17622     17624
     17619     17622     17625     17620     17619     17621     17620     17619     17622
     17621     17619     17622     17622     17625     17626     17622     17625     17627
     17622     17625     17628     17623     17622     17624     17623     17622     17625
     17624     17622     17625     17625     17628     17629     17625     17628     17630
     17625     17628     17631     17626     17625     17627     17626     17625     17628
     17627     17625     17628     17628     17631     17632     17628     17631     17633
     17628     17631     17634     17629     17628     17630     17629     17628     17631
     17630     17628     17631     17631     17634     17635     17631     17634     17636
     17631     17634     17637     17632     17631     17633     17632     17631     17634
     17633     17631     17634     17635     17634     17636     17635     17634     17637
     17636     17634     17637     17638     17640     17641     17638     17642     17643
     17638     17642     17644     17638     17642     17646     17638     17658     17654
     17638     17658     17659     17638     17658     17663     17639     17638     17640
     17639     17638     17642     17639     17638     17658     17640     17638     17642
     17640     17638     17658     17642     17638     17658     17642     17644     17645
     17642     17646     17647     17642     17646     17648     17642     17646     17650
     17643     17642     17644     17643     17642     17646     17644     17642     17646
     17646     17648     17649     17646     17650     17651     17646     17650     17652
     17646     17650     17654     17647     17646     17648     17647     17646     17650
     17648     17646     17650     17650     17652     17653     17650     17654     17655
     17650     17654     17656     17650     17654     17658     17651     17650     17652
     17651     17650     17654     17652     17650     17654     17654     17656     17657
     17654     17658     17659     17654     17658     17663     17655     17654     17656
     17655     17654     17658     17656     17654     17658     17658     17663     17660
     17659     17658     17663     17660     17664     17665     17661     17660     17662
     17661     17660     17663     17661     17660     17664     17662     17660     17663
     17662     17660     17664     17663     17660     17664     17664     17665     17666
     17664     17665     17667     17664     17665     17668     17665     17668     17669
     17665     17668     17670     17665     17668     17676     17666     17665     17667
     17666     17665     17668     17667     17665     17668     17668     17670     17671
     17668     17676     17677     17668     17676     17678     17668     17676     17679
     17669     17668     17670     17669     17668     17676     17670     17668     17676
     17670     17671     17672     17670     17671     17673     17671     17673     17674
     17671     17673     17675     17671     17673     17685     17672     17671     17673
     17673     17685     17686     17673     17685     17687     17673     17685     17688
     17674     17673     17675     17674     17673     17685     17675     17673     17685
     17676     17679     17680     17677     17676     17678     17677     17676     17679
     17678     17676     17679     17679     17680     17681     17679     17680     17682
     17680     17682     17683     17680     17682     17684     17680     17682     17732
     17681     17680     17682     17682     17732     17733     17682     17732     17734
     17682     17732     17735     17683     17682     17684     17683     17682     17732
     17684     17682     17732     17685     17688     17689     17685     17688     17690
     17685     17688     17691     17686     17685     17687     17686     17685     17688
     17687     17685     17688     17688     17691     17692     17688     17691     17693
     17689     17688     17690     17689     17688     17691     17690     17688     17691
     17691     17693     17694     17691     17693     17695     17692     17691     17693
     17693     17695     17696     17693     17695     17697     17693     17695     17698
     17694     17693     17695     17695     17698     17699     17695     17698     17700
     17696     17695     17697     17696     17695     17698     17697     17695     17698
     17698     17700     17701     17698     17700     17702     17699     17698     17700
     17700     17702     17703     17700     17702     17704     17700     17702     17705
     17701     17700     17702     17702     17705     17706     17702     17705     17707
     17703     17702     17704     17703     17702     17705     17704     17702     17705
     17705     17707     17708     17705     17707     17709     17706     17705     17707
     17707     17709     17710     17707     17709     17711     17707     17709     17712
     17708     17707     17709     17709     17712     17713     17709     17712     17714
     17710     17709     17711     17710     17709     17712     17711     17709     17712
     17712     17714     17715     17712     17714     17716     17713     17712     17714
     17714     17716     17717     17714     17716     17718     17714     17716     17719
     17715     17714     17716     17716     17719     17720     17716     17719     17721
     17716     17719     17722     17717     17716     17718     17717     17716     17719
     17718     17716     17719     17719     17722     17723     17719     17722     17724
     17719     17722     17725     17720     17719     17721     17720     17719     17722
     17721     17719     17722     17722     17725     17726     17722     17725     17727
     17722     17725     17728     17723     17722     17724     17723     17722     17725
     17724     17722     17725     17725     17728     17729     17725     17728     17730
     17725     17728     17731     17726     17725     17727     17726     17725     17728
     17727     17725     17728     17729     17728     17730     17729     17728     17731
     17730     17728     17731     17732     17735     17736     17732     17735     17737
     17732     17735     17738     17733     17732     17734     17733     17732     17735
     17734     17732     17735     17735     17738     17739     17735     17738     17740
     17735     17738     17741     17736     17735     17737     17736     17735     17738
     17737     17735     17738     17738     17741     17742     17738     17741     17743
     17738     17741     17744     17739     17738     17740     17739     17738     17741
     17740     17738     17741     17741     17744     17745     17741     17744     17746
     17741     17744     17747     17742     17741     17743     17742     17741     17744
     17743     17741     17744     17744     17747     17748     17744     17747     17749
     17744     17747     17750     17745     17744     17746     17745     17744     17747
     17746     17744     17747     17747     17750     17751     17747     17750     17752
     17747     17750     17753     17748     17747     17749     17748     17747     17750
     17749     17747     17750     17750     17753     17754     17750     17753     17755
     17750     17753     17756     17751     17750     17752     17751     17750     17753
     17752     17750     17753     17753     17756     17757     17753     17756     17758
     17753     17756     17759     17754     17753     17755     17754     17753     17756
     17755     17753     17756     17756     17759     17760     17756     17759     17761
     17756     17759     17762     17757     17756     17758     17757     17756     17759
     17758     17756     17759     17759     17762     17763     17759     17762     17764
     17759     17762     17765     17760     17759     17761     17760     17759     17762
     17761     17759     17762     17762     17765     17766     17762     17765     17767
     17762     17765     17768     17763     17762     17764     17763     17762     17765
     17764     17762     17765     17765     17768     17769     17765     17768     17770
     17765     17768     17771     17766     17765     17767     17766     17765     17768
     17767     17765     17768     17768     17771     17772     17768     17771     17773
     17768     17771     17774     17769     17768     17770     17769     17768     17771
     17770     17768     17771     17771     17774     17775     17771     17774     17776
     17771     17774     17777     17772     17771     17773     17772     17771     17774
     17773     17771     17774     17774     17777     17778     17774     17777     17779
     17774     17777     17780     17775     17774     17776     17775     17774     17777
     17776     17774     17777     17778     17777     17779     17778     17777     17780
     17779     17777     17780     17781     17783     17784     17781     17785     17786
     17781     17785     17787     17781     17785     17788     17781     17827     17824
     17781     17827     17828     17781     17827     17829     17782     17781     17783
     17782     17781     17785     17782     17781     17827     17783     17781     17785
     17783     17781     17827     17785     17781     17827     17785     17788     17789
     17785     17788     17819     17786     17785     17787     17786     17785     17788
     17787     17785     17788     17788     17789     17790     17788     17789     17791
     17788     17819     17817     17788     17819     17820     17788     17819     17824
     17789     17788     17819     17789     17791     17792     17789     17791     17793
     17789     17791     17794     17790     17789     17791     17791     17794     17795
     17791     17794     17796     17791     17794     17817     17792     17791     17793
     17792     17791     17794     17793     17791     17794     17794     17796     17797
     17794     17796     17798     17794     17796     17806     17794     17817     17814
     17794     17817     17818     17794     17817     17819     17795     17794     17796
     17795     17794     17817     17796     17794     17817     17796     17798     17799
     17796     17798     17800     17796     17798     17801     17796     17806     17804
     17796     17806     17807     17796     17806     17811     17797     17796     17798
     17797     17796     17806     17798     17796     17806     17798     17801     17802
     17798     17801     17803     17798     17801     17804     17799     17798     17800
     17799     17798     17801     17800     17798     17801     17801     17804     17805
     17801     17804     17806     17801     17804     17830     17802     17801     17803
     17802     17801     17804     17803     17801     17804     17804     17806     17807
     17804     17806     17811     17804     17830     17831     17804     17830     17832
     17804     17830     17836     17805     17804     17806     17805     17804     17830
     17806     17804     17830     17806     17807     17808     17806     17807     17809
     17806     17807     17810     17806     17811     17812     17806     17811     17813
     17806     17811     17814     17807     17806     17811     17808     17807     17809
     17808     17807     17810     17809     17807     17810     17811     17814     17815
     17811     17814     17816     17811     17814     17817     17812     17811     17813
     17812     17811     17814     17813     17811     17814     17814     17817     17818
     17814     17817     17819     17815     17814     17816     17815     17814     17817
     17816     17814     17817     17817     17819     17820     17817     17819     17824
     17818     17817     17819     17819     17820     17821     17819     17820     17822
     17819     17820     17823     17819     17824     17825     17819     17824     17826
     17819     17824     17827     17820     17819     17824     17821     17820     17822
     17821     17820     17823     17822     17820     17823     17824     17827     17828
     17824     17827     17829     17825     17824     17826     17825     17824     17827
     17826     17824     17827     17828     17827     17829     17830     17832     17833
     17830     17832     17834     17830     17832     17835     17830     17836     17837
     17830     17836     17838     17830     17836     17839     17831     17830     17832
     17831     17830     17836     17832     17830     17836     17833     17832     17834
     17833     17832     17835     17834     17832     17835     17836     17839     17840
     17836     17839     17841     17836     17839     17842     17837     17836     17838
     17837     17836     17839     17838     17836     17839     17839     17842     17843
     17839     17842     17844     17839     17842     17845     17840     17839     17841
     17840     17839     17842     17841     17839     17842     17842     17845     17846
     17842     17845     17847     17842     17845     17851     17843     17842     17844
     17843     17842     17845     17844     17842     17845     17845     17847     17848
     17845     17847     17849     17845     17847     17850     17845     17851     17852
     17845     17851     17853     17845     17851     17854     17846     17845     17847
     17846     17845     17851     17847     17845     17851     17848     17847     17849
     17848     17847     17850     17849     17847     17850     17852     17851     17853
     17852     17851     17854     17853     17851     17854     17855     17857     17858
     17855     17859     17860     17855     17859     17861     17855     17859     17863
     17855     17875     17871     17855     17875     17876     17855     17875     17880
     17856     17855     17857     17856     17855     17859     17856     17855     17875
     17857     17855     17859     17857     17855     17875     17859     17855     17875
     17859     17861     17862     17859     17863     17864     17859     17863     17865
     17859     17863     17867     17860     17859     17861     17860     17859     17863
     17861     17859     17863     17863     17865     17866     17863     17867     17868
     17863     17867     17869     17863     17867     17871     17864     17863     17865
     17864     17863     17867     17865     17863     17867     17867     17869     17870
     17867     17871     17872     17867     17871     17873     17867     17871     17875
     17868     17867     17869     17868     17867     17871     17869     17867     17871
     17871     17873     17874     17871     17875     17876     17871     17875     17880
     17872     17871     17873     17872     17871     17875     17873     17871     17875
     17875     17880     17877     17876     17875     17880     17877     17881     17882
     17878     17877     17879     17878     17877     17880     17878     17877     17881
     17879     17877     17880     17879     17877     17881     17880     17877     17881
     17881     17882     17883     17881     17882     17884     17881     17882     17885
     17882     17885     17886     17882     17885     17887     17882     17885     17893
     17883     17882     17884     17883     17882     17885     17884     17882     17885
     17885     17887     17888     17885     17893     17894     17885     17893     17895
     17885     17893     17896     17886     17885     17887     17886     17885     17893
     17887     17885     17893     17887     17888     17889     17887     17888     17890
     17888     17890     17891     17888     17890     17892     17888     17890     17902
     17889     17888     17890     17890     17902     17903     17890     17902     17904
     17890     17902     17905     17891     17890     17892     17891     17890     17902
     17892     17890     17902     17893     17896     17897     17894     17893     17895
     17894     17893     17896     17895     17893     17896     17896     17897     17898
     17896     17897     17899     17897     17899     17900     17897     17899     17901
     17897     17899     17949     17898     17897     17899     17899     17949     17950
     17899     17949     17951     17899     17949     17952     17900     17899     17901
     17900     17899     17949     17901     17899     17949     17902     17905     17906
     17902     17905     17907     17902     17905     17908     17903     17902     17904
     17903     17902     17905     17904     17902     17905     17905     17908     17909
     17905     17908     17910     17906     17905     17907     17906     17905     17908
     17907     17905     17908     17908     17910     17911     17908     17910     17912
     17909     17908     17910     17910     17912     17913     17910     17912     17914
     17910     17912     17915     17911     17910     17912     17912     17915     17916
     17912     17915     17917     17913     17912     17914     17913     17912     17915
     17914     17912     17915     17915     17917     17918     17915     17917     17919
     17916     17915     17917     17917     17919     17920     17917     17919     17921
     17917     17919     17922     17918     17917     17919     17919     17922     17923
     17919     17922     17924     17920     17919     17921     17920     17919     17922
     17921     17919     17922     17922     17924     17925     17922     17924     17926
     17923     17922     17924     17924     17926     17927     17924     17926     17928
     17924     17926     17929     17925     17924     17926     17926     17929     17930
     17926     17929     17931     17927     17926     17928     17927     17926     17929
     17928     17926     17929     17929     17931     17932     17929     17931     17933
     17930     17929     17931     17931     17933     17934     17931     17933     17935
     17931     17933     17936     17932     17931     17933     17933     17936     17937
     17933     17936     17938     17933     17936     17939     17934     17933     17935
     17934     17933     17936     17935     17933     17936     17936     17939     17940
     17936     17939     17941     17936     17939     17942     17937     17936     17938
     17937     17936     17939     17938     17936     17939     17939     17942     17943
     17939     17942     17944     17939     17942     17945     17940     17939     17941
     17940     17939     17942     17941     17939     17942     17942     17945     17946
     17942     17945     17947     17942     17945     17948     17943     17942     17944
     17943     17942     17945     17944     17942     17945     17946     17945     17947
     17946     17945     17948     17947     17945     17948     17949     17952     17953
     17949     17952     17954     17949     17952     17955     17950     17949     17951
     17950     17949     17952     17951     17949     17952     17952     17955     17956
     17952     17955     17957     17952     17955     17958     17953     17952     17954
     17953     17952     17955     17954     17952     17955     17955     17958     17959
     17955     17958     17960     17955     17958     17961     17956     17955     17957
     17956     17955     17958     17957     17955     17958     17958     17961     17962
     17958     17961     17963     17958     17961     17964     17959     17958     17960
     17959     17958     17961     17960     17958     17961     17961     17964     17965
     17961     17964     17966     17961     17964     17967     17962     17961     17963
     17962     17961     17964     17963     17961     17964     17964     17967     17968
     17964     17967     17969     17964     17967     17970     17965     17964     17966
     17965     17964     17967     17966     17964     17967     17967     17970     17971
     17967     17970     17972     17967     17970     17973     17968     17967     17969
     17968     17967     17970     17969     17967     17970     17970     17973     17974
     17970     17973     17975     17970     17973     17976     17971     17970     17972
     17971     17970     17973     17972     17970     17973     17973     17976     17977
     17973     17976     17978     17973     17976     17979     17974     17973     17975
     17974     17973     17976     17975     17973     17976     17976     17979     17980
     17976     17979     17981     17976     17979     17982     17977     17976     17978
     17977     17976     17979     17978     17976     17979     17979     17982     17983
     17979     17982     17984     17979     17982     17985     17980     17979     17981
     17980     17979     17982     17981     17979     17982     17982     17985     17986
     17982     17985     17987     17982     17985     17988     17983     17982     17984
     17983     17982     17985     17984     17982     17985     17985     17988     17989
     17985     17988     17990     17985     17988     17991     17986     17985     17987
     17986     17985     17988     17987     17985     17988     17988     17991     17992
     17988     17991     17993     17988     17991     17994     17989     17988     17990
     17989     17988     17991     17990     17988     17991     17991     17994     17995
     17991     17994     17996     17991     17994     17997     17992     17991     17993
     17992     17991     17994     17993     17991     17994     17995     17994     17996
     17995     17994     17997     17996     17994     17997     17998     18002     18003
     17998     18002     18004     17998     18002     18005     17999     17998     18000
     17999     17998     18001     17999     17998     18002     18000     17998     18001
     18000     17998     18002     18001     17998     18002     18002     18005     18006
     18002     18005     18007     18002     18005     18011     18003     18002     18004
     18003     18002     18005     18004     18002     18005     18005     18011     18008
     18006     18005     18007     18006     18005     18011     18007     18005     18011
     18008     18012     18013     18009     18008     18010     18009     18008     18011
     18009     18008     18012     18010     18008     18011     18010     18008     18012
     18011     18008     18012     18012     18013     18014     18012     18013     18015
     18012     18013     18016     18013     18016     18017     18013     18016     18018
     18013     18016     18024     18014     18013     18015     18014     18013     18016
     18015     18013     18016     18016     18018     18019     18016     18024     18025
     18016     18024     18026     18016     18024     18027     18017     18016     18018
     18017     18016     18024     18018     18016     18024     18018     18019     18020
     18018     18019     18021     18019     18021     18022     18019     18021     18023
     18019     18021     18033     18020     18019     18021     18021     18033     18034
     18021     18033     18035     18021     18033     18036     18022     18021     18023
     18022     18021     18033     18023     18021     18033     18024     18027     18028
     18025     18024     18026     18025     18024     18027     18026     18024     18027
     18027     18028     18029     18027     18028     18030     18028     18030     18031
     18028     18030     18032     18028     18030     18080     18029     18028     18030
     18030     18080     18081     18030     18080     18082     18030     18080     18083
     18031     18030     18032     18031     18030     18080     18032     18030     18080
     18033     18036     18037     18033     18036     18038     18033     18036     18039
     18034     18033     18035     18034     18033     18036     18035     18033     18036
     18036     18039     18040     18036     18039     18041     18037     18036     18038
     18037     18036     18039     18038     18036     18039     18039     18041     18042
     18039     18041     18043     18040     18039     18041     18041     18043     18044
     18041     18043     18045     18041     18043     18046     18042     18041     18043
     18043     18046     18047     18043     18046     18048     18044     18043     18045
     18044     18043     18046     18045     18043     18046     18046     18048     18049
     18046     18048     18050     18047     18046     18048     18048     18050     18051
     18048     18050     18052     18048     18050     18053     18049     18048     18050
     18050     18053     18054     18050     18053     18055     18051     18050     18052
     18051     18050     18053     18052     18050     18053     18053     18055     18056
     18053     18055     18057     18054     18053     18055     18055     18057     18058
     18055     18057     18059     18055     18057     18060     18056     18055     18057
     18057     18060     18061     18057     18060     18062     18058     18057     18059
     18058     18057     18060     18059     18057     18060     18060     18062     18063
     18060     18062     18064     18061     18060     18062     18062     18064     18065
     18062     18064     18066     18062     18064     18067     18063     18062     18064
     18064     18067     18068     18064     18067     18069     18064     18067     18070
     18065     18064     18066     18065     18064     18067     18066     18064     18067
     18067     18070     18071     18067     18070     18072     18067     18070     18073
     18068     18067     18069     18068     18067     18070     18069     18067     18070
     18070     18073     18074     18070     18073     18075     18070     18073     18076
     18071     18070     18072     18071     18070     18073     18072     18070     18073
     18073     18076     18077     18073     18076     18078     18073     18076     18079
     18074     18073     18075     18074     18073     18076     18075     18073     18076
     18077     18076     18078     18077     18076     18079     18078     18076     18079
     18080     18083     18084     18080     18083     18085     18080     18083     18086
     18081     18080     18082     18081     18080     18083     18082     18080     18083
     18083     18086     18087     18083     18086     18088     18083     18086     18089
     18084     18083     18085     18084     18083     18086     18085     18083     18086
     18086     18089     18090     18086     18089     18091     18086     18089     18092
     18087     18086     18088     18087     18086     18089     18088     18086     18089
     18089     18092     18093     18089     18092     18094     18089     18092     18095
     18090     18089     18091     18090     18089     18092     18091     18089     18092
     18092     18095     18096     18092     18095     18097     18092     18095     18098
     18093     18092     18094     18093     18092     18095     18094     18092     18095
     18095     18098     18099     18095     18098     18100     18095     18098     18101
     18096     18095     18097     18096     18095     18098     18097     18095     18098
     18098     18101     18102     18098     18101     18103     18098     18101     18104
     18099     18098     18100     18099     18098     18101     18100     18098     18101
     18101     18104     18105     18101     18104     18106     18101     18104     18107
     18102     18101     18103     18102     18101     18104     18103     18101     18104
     18104     18107     18108     18104     18107     18109     18104     18107     18110
     18105     18104     18106     18105     18104     18107     18106     18104     18107
     18107     18110     18111     18107     18110     18112     18107     18110     18113
     18108     18107     18109     18108     18107     18110     18109     18107     18110
     18110     18113     18114     18110     18113     18115     18110     18113     18116
     18111     18110     18112     18111     18110     18113     18112     18110     18113
     18113     18116     18117     18113     18116     18118     18113     18116     18119
     18114     18113     18115     18114     18113     18116     18115     18113     18116
     18116     18119     18120     18116     18119     18121     18116     18119     18122
     18117     18116     18118     18117     18116     18119     18118     18116     18119
     18119     18122     18123     18119     18122     18124     18119     18122     18125
     18120     18119     18121     18120     18119     18122     18121     18119     18122
     18122     18125     18126     18122     18125     18127     18122     18125     18128
     18123     18122     18124     18123     18122     18125     18124     18122     18125
     18126     18125     18127     18126     18125     18128     18127     18125     18128
     18129     18130     18131     18129     18130     18132     18129     18130     18133
     18129     18134     18135     18129     18134     18136     18129     18134     18137
     18129     18138     18139     18129     18138     18140     18129     18138     18141
     18129     18142     18143     18129     18142     18144     18129     18142     18145
     18130     18129     18134     18130     18129     18138     18130     18129     18142
     18131     18130     18132     18131     18130     18133     18132     18130     18133
     18134     18129     18138     18134     18129     18142     18135     18134     18136
     18135     18134     18137     18136     18134     18137     18138     18129     18142
     18139     18138     18140     18139     18138     18141     18140     18138     18141
     18142     18145     18146     18142     18145     18147     18142     18145     18152
     18143     18142     18144     18143     18142     18145     18144     18142     18145
     18145     18152     18148     18146     18145     18147     18146     18145     18152
     18147     18145     18152     18148     18151     18153     18149     18148     18150
     18149     18148     18151     18149     18148     18152     18150     18148     18151
     18150     18148     18152     18151     18148     18152     18151     18153     18154
     18151     18153     18155     18151     18153     18158     18153     18158     18156
     18153     18158     18159     18153     18158     18160     18154     18153     18155
     18154     18153     18158     18155     18153     18158     18156     18158     18159
     18156     18158     18160     18156     18208     18209     18156     18208     18210
     18157     18156     18158     18157     18156     18208     18158     18156     18208
     18158     18160     18161     18158     18160     18162     18158     18160     18164
     18159     18158     18160     18160     18162     18163     18160     18164     18165
     18160     18164     18166     18161     18160     18162     18161     18160     18164
     18162     18160     18164     18164     18166     18167     18164     18166     18168
     18165     18164     18166     18166     18168     18169     18166     18168     18170
     18166     18168     18171     18167     18166     18168     18168     18171     18172
     18168     18171     18173     18168     18171     18174     18169     18168     18170
     18169     18168     18171     18170     18168     18171     18171     18174     18175
     18171     18174     18176     18171     18174     18177     18172     18171     18173
     18172     18171     18174     18173     18171     18174     18174     18177     18178
     18174     18177     18179     18174     18177     18180     18175     18174     18176
     18175     18174     18177     18176     18174     18177     18177     18180     18181
     18177     18180     18182     18177     18180     18183     18178     18177     18179
     18178     18177     18180     18179     18177     18180     18180     18183     18184
     18180     18183     18185     18180     18183     18186     18181     18180     18182
     18181     18180     18183     18182     18180     18183     18183     18186     18187
     18183     18186     18188     18183     18186     18189     18184     18183     18185
     18184     18183     18186     18185     18183     18186     18186     18189     18190
     18186     18189     18191     18186     18189     18192     18187     18186     18188
     18187     18186     18189     18188     18186     18189     18189     18192     18193
     18189     18192     18194     18189     18192     18195     18190     18189     18191
     18190     18189     18192     18191     18189     18192     18192     18195     18196
     18192     18195     18197     18192     18195     18198     18193     18192     18194
     18193     18192     18195     18194     18192     18195     18195     18198     18199
     18195     18198     18200     18195     18198     18201     18196     18195     18197
     18196     18195     18198     18197     18195     18198     18198     18201     18202
     18198     18201     18203     18198     18201     18204     18199     18198     18200
     18199     18198     18201     18200     18198     18201     18201     18204     18205
     18201     18204     18206     18201     18204     18207     18202     18201     18203
     18202     18201     18204     18203     18201     18204     18205     18204     18206
     18205     18204     18207     18206     18204     18207     18208     18210     18211
     18208     18210     18212     18208     18210     18213     18209     18208     18210
     18210     18213     18214     18210     18213     18215     18210     18213     18216
     18211     18210     18212     18211     18210     18213     18212     18210     18213
     18213     18216     18217     18213     18216     18218     18213     18216     18219
     18214     18213     18215     18214     18213     18216     18215     18213     18216
     18216     18219     18220     18216     18219     18221     18216     18219     18222
     18217     18216     18218     18217     18216     18219     18218     18216     18219
     18219     18222     18223     18219     18222     18224     18219     18222     18225
     18220     18219     18221     18220     18219     18222     18221     18219     18222
     18222     18225     18226     18222     18225     18227     18222     18225     18228
     18223     18222     18224     18223     18222     18225     18224     18222     18225
     18225     18228     18229     18225     18228     18230     18225     18228     18231
     18226     18225     18227     18226     18225     18228     18227     18225     18228
     18228     18231     18232     18228     18231     18233     18229     18228     18230
     18229     18228     18231     18230     18228     18231     18231     18233     18234
     18231     18233     18235     18232     18231     18233     18233     18235     18236
     18233     18235     18237     18233     18235     18238     18234     18233     18235
     18235     18238     18239     18235     18238     18240     18235     18238     18241
     18236     18235     18237     18236     18235     18238     18237     18235     18238
     18238     18241     18242     18238     18241     18243     18238     18241     18244
     18239     18238     18240     18239     18238     18241     18240     18238     18241
     18241     18244     18245     18241     18244     18246     18241     18244     18247
     18242     18241     18243     18242     18241     18244     18243     18241     18244
     18244     18247     18248     18244     18247     18249     18244     18247     18250
     18245     18244     18246     18245     18244     18247     18246     18244     18247
     18247     18250     18251     18247     18250     18252     18247     18250     18253
     18248     18247     18249     18248     18247     18250     18249     18247     18250
     18250     18253     18254     18250     18253     18255     18250     18253     18256
     18251     18250     18252     18251     18250     18253     18252     18250     18253
     18253     18256     18257     18253     18256     18258     18253     18256     18259
     18254     18253     18255     18254     18253     18256     18255     18253     18256
     18257     18256     18258     18257     18256     18259     18258     18256     18259
     18260     18261     18262     18260     18261     18263     18260     18261     18264
     18260     18265     18266     18260     18265     18267     18260     18265     18268
     18260     18269     18270     18260     18269     18271     18260     18269     18272
     18260     18273     18274     18260     18273     18275     18260     18273     18276
     18261     18260     18265     18261     18260     18269     18261     18260     18273
     18262     18261     18263     18262     18261     18264     18263     18261     18264
     18265     18260     18269     18265     18260     18273     18266     18265     18267
     18266     18265     18268     18267     18265     18268     18269     18260     18273
     18270     18269     18271     18270     18269     18272     18271     18269     18272
     18273     18276     18277     18273     18276     18278     18273     18276     18283
     18274     18273     18275     18274     18273     18276     18275     18273     18276
     18276     18283     18279     18277     18276     18278     18277     18276     18283
     18278     18276     18283     18279     18282     18284     18280     18279     18281
     18280     18279     18282     18280     18279     18283     18281     18279     18282
     18281     18279     18283     18282     18279     18283     18282     18284     18285
     18282     18284     18286     18282     18284     18289     18284     18289     18287
     18284     18289     18290     18284     18289     18291     18285     18284     18286
     18285     18284     18289     18286     18284     18289     18287     18289     18290
     18287     18289     18291     18287     18339     18340     18287     18339     18341
     18288     18287     18289     18288     18287     18339     18289     18287     18339
     18289     18291     18292     18289     18291     18293     18289     18291     18295
     18290     18289     18291     18291     18293     18294     18291     18295     18296
     18291     18295     18297     18292     18291     18293     18292     18291     18295
     18293     18291     18295     18295     18297     18298     18295     18297     18299
     18296     18295     18297     18297     18299     18300     18297     18299     18301
     18297     18299     18302     18298     18297     18299     18299     18302     18303
     18299     18302     18304     18299     18302     18305     18300     18299     18301
     18300     18299     18302     18301     18299     18302     18302     18305     18306
     18302     18305     18307     18302     18305     18308     18303     18302     18304
     18303     18302     18305     18304     18302     18305     18305     18308     18309
     18305     18308     18310     18305     18308     18311     18306     18305     18307
     18306     18305     18308     18307     18305     18308     18308     18311     18312
     18308     18311     18313     18308     18311     18314     18309     18308     18310
     18309     18308     18311     18310     18308     18311     18311     18314     18315
     18311     18314     18316     18311     18314     18317     18312     18311     18313
     18312     18311     18314     18313     18311     18314     18314     18317     18318
     18314     18317     18319     18314     18317     18320     18315     18314     18316
     18315     18314     18317     18316     18314     18317     18317     18320     18321
     18317     18320     18322     18317     18320     18323     18318     18317     18319
     18318     18317     18320     18319     18317     18320     18320     18323     18324
     18320     18323     18325     18320     18323     18326     18321     18320     18322
     18321     18320     18323     18322     18320     18323     18323     18326     18327
     18323     18326     18328     18323     18326     18329     18324     18323     18325
     18324     18323     18326     18325     18323     18326     18326     18329     18330
     18326     18329     18331     18326     18329     18332     18327     18326     18328
     18327     18326     18329     18328     18326     18329     18329     18332     18333
     18329     18332     18334     18329     18332     18335     18330     18329     18331
     18330     18329     18332     18331     18329     18332     18332     18335     18336
     18332     18335     18337     18332     18335     18338     18333     18332     18334
     18333     18332     18335     18334     18332     18335     18336     18335     18337
     18336     18335     18338     18337     18335     18338     18339     18341     18342
     18339     18341     18343     18339     18341     18344     18340     18339     18341
     18341     18344     18345     18341     18344     18346     18341     18344     18347
     18342     18341     18343     18342     18341     18344     18343     18341     18344
     18344     18347     18348     18344     18347     18349     18344     18347     18350
     18345     18344     18346     18345     18344     18347     18346     18344     18347
     18347     18350     18351     18347     18350     18352     18347     18350     18353
     18348     18347     18349     18348     18347     18350     18349     18347     18350
     18350     18353     18354     18350     18353     18355     18350     18353     18356
     18351     18350     18352     18351     18350     18353     18352     18350     18353
     18353     18356     18357     18353     18356     18358     18353     18356     18359
     18354     18353     18355     18354     18353     18356     18355     18353     18356
     18356     18359     18360     18356     18359     18361     18356     18359     18362
     18357     18356     18358     18357     18356     18359     18358     18356     18359
     18359     18362     18363     18359     18362     18364     18360     18359     18361
     18360     18359     18362     18361     18359     18362     18362     18364     18365
     18362     18364     18366     18363     18362     18364     18364     18366     18367
     18364     18366     18368     18364     18366     18369     18365     18364     18366
     18366     18369     18370     18366     18369     18371     18366     18369     18372
     18367     18366     18368     18367     18366     18369     18368     18366     18369
     18369     18372     18373     18369     18372     18374     18369     18372     18375
     18370     18369     18371     18370     18369     18372     18371     18369     18372
     18372     18375     18376     18372     18375     18377     18372     18375     18378
     18373     18372     18374     18373     18372     18375     18374     18372     18375
     18375     18378     18379     18375     18378     18380     18375     18378     18381
     18376     18375     18377     18376     18375     18378     18377     18375     18378
     18378     18381     18382     18378     18381     18383     18378     18381     18384
     18379     18378     18380     18379     18378     18381     18380     18378     18381
     18381     18384     18385     18381     18384     18386     18381     18384     18387
     18382     18381     18383     18382     18381     18384     18383     18381     18384
     18384     18387     18388     18384     18387     18389     18384     18387     18390
     18385     18384     18386     18385     18384     18387     18386     18384     18387
     18388     18387     18389     18388     18387     18390     18389     18387     18390
     18391     18395     18396     18391     18395     18397     18391     18395     18398
     18392     18391     18393     18392     18391     18394     18392     18391     18395
     18393     18391     18394     18393     18391     18395     18394     18391     18395
     18395     18398     18399     18395     18398     18400     18395     18398     18404
     18396     18395     18397     18396     18395     18398     18397     18395     18398
     18398     18404     18401     18399     18398     18400     18399     18398     18404
     18400     18398     18404     18401     18405     18406     18402     18401     18403
     18402     18401     18404     18402     18401     18405     18403     18401     18404
     18403     18401     18405     18404     18401     18405     18405     18406     18407
     18405     18406     18408     18405     18406     18409     18406     18409     18410
     18406     18409     18411     18406     18409     18417     18407     18406     18408
     18407     18406     18409     18408     18406     18409     18409     18411     18412
     18409     18417     18418     18409     18417     18419     18409     18417     18420
     18410     18409     18411     18410     18409     18417     18411     18409     18417
     18411     18412     18413     18411     18412     18414     18412     18414     18415
     18412     18414     18416     18412     18414     18426     18413     18412     18414
     18414     18426     18427     18414     18426     18428     18414     18426     18429
     18415     18414     18416     18415     18414     18426     18416     18414     18426
     18417     18420     18421     18418     18417     18419     18418     18417     18420
     18419     18417     18420     18420     18421     18422     18420     18421     18423
     18421     18423     18424     18421     18423     18425     18421     18423     18473
     18422     18421     18423     18423     18473     18474     18423     18473     18475
     18423     18473     18476     18424     18423     18425     18424     18423     18473
     18425     18423     18473     18426     18429     18430     18426     18429     18431
     18426     18429     18432     18427     18426     18428     18427     18426     18429
     18428     18426     18429     18429     18432     18433     18429     18432     18434
     18430     18429     18431     18430     18429     18432     18431     18429     18432
     18432     18434     18435     18432     18434     18436     18433     18432     18434
     18434     18436     18437     18434     18436     18438     18434     18436     18439
     18435     18434     18436     18436     18439     18440     18436     18439     18441
     18437     18436     18438     18437     18436     18439     18438     18436     18439
     18439     18441     18442     18439     18441     18443     18440     18439     18441
     18441     18443     18444     18441     18443     18445     18441     18443     18446
     18442     18441     18443     18443     18446     18447     18443     18446     18448
     18444     18443     18445     18444     18443     18446     18445     18443     18446
     18446     18448     18449     18446     18448     18450     18447     18446     18448
     18448     18450     18451     18448     18450     18452     18448     18450     18453
     18449     18448     18450     18450     18453     18454     18450     18453     18455
     18451     18450     18452     18451     18450     18453     18452     18450     18453
     18453     18455     18456     18453     18455     18457     18454     18453     18455
     18455     18457     18458     18455     18457     18459     18455     18457     18460
     18456     18455     18457     18457     18460     18461     18457     18460     18462
     18457     18460     18463     18458     18457     18459     18458     18457     18460
     18459     18457     18460     18460     18463     18464     18460     18463     18465
     18460     18463     18466     18461     18460     18462     18461     18460     18463
     18462     18460     18463     18463     18466     18467     18463     18466     18468
     18463     18466     18469     18464     18463     18465     18464     18463     18466
     18465     18463     18466     18466     18469     18470     18466     18469     18471
     18466     18469     18472     18467     18466     18468     18467     18466     18469
     18468     18466     18469     18470     18469     18471     18470     18469     18472
     18471     18469     18472     18473     18476     18477     18473     18476     18478
     18473     18476     18479     18474     18473     18475     18474     18473     18476
     18475     18473     18476     18476     18479     18480     18476     18479     18481
     18476     18479     18482     18477     18476     18478     18477     18476     18479
     18478     18476     18479     18479     18482     18483     18479     18482     18484
     18479     18482     18485     18480     18479     18481     18480     18479     18482
     18481     18479     18482     18482     18485     18486     18482     18485     18487
     18482     18485     18488     18483     18482     18484     18483     18482     18485
     18484     18482     18485     18485     18488     18489     18485     18488     18490
     18485     18488     18491     18486     18485     18487     18486     18485     18488
     18487     18485     18488     18488     18491     18492     18488     18491     18493
     18488     18491     18494     18489     18488     18490     18489     18488     18491
     18490     18488     18491     18491     18494     18495     18491     18494     18496
     18491     18494     18497     18492     18491     18493     18492     18491     18494
     18493     18491     18494     18494     18497     18498     18494     18497     18499
     18494     18497     18500     18495     18494     18496     18495     18494     18497
     18496     18494     18497     18497     18500     18501     18497     18500     18502
     18497     18500     18503     18498     18497     18499     18498     18497     18500
     18499     18497     18500     18500     18503     18504     18500     18503     18505
     18500     18503     18506     18501     18500     18502     18501     18500     18503
     18502     18500     18503     18503     18506     18507     18503     18506     18508
     18503     18506     18509     18504     18503     18505     18504     18503     18506
     18505     18503     18506     18506     18509     18510     18506     18509     18511
     18506     18509     18512     18507     18506     18508     18507     18506     18509
     18508     18506     18509     18509     18512     18513     18509     18512     18514
     18509     18512     18515     18510     18509     18511     18510     18509     18512
     18511     18509     18512     18512     18515     18516     18512     18515     18517
     18512     18515     18518     18513     18512     18514     18513     18512     18515
     18514     18512     18515     18515     18518     18519     18515     18518     18520
     18515     18518     18521     18516     18515     18517     18516     18515     18518
     18517     18515     18518     18519     18518     18520     18519     18518     18521
     18520     18518     18521     18522     18523     18524     18522     18523     18525
     18522     18523     18526     18522     18527     18528     18522     18527     18529
     18522     18527     18530     18522     18531     18532     18522     18531     18533
     18522     18531     18534     18522     18535     18536     18522     18535     18537
     18522     18535     18538     18523     18522     18527     18523     18522     18531
     18523     18522     18535     18524     18523     18525     18524     18523     18526
     18525     18523     18526     18527     18522     18531     18527     18522     18535
     18528     18527     18529     18528     18527     18530     18529     18527     18530
     18531     18522     18535     18532     18531     18533     18532     18531     18534
     18533     18531     18534     18535     18538     18539     18535     18538     18540
     18535     18538     18544     18536     18535     18537     18536     18535     18538
     18537     18535     18538     18538     18544     18541     18539     18538     18540
     18539     18538     18544     18540     18538     18544     18541     18545     18546
     18542     18541     18543     18542     18541     18544     18542     18541     18545
     18543     18541     18544     18543     18541     18545     18544     18541     18545
     18545     18546     18547     18545     18546     18548     18545     18546     18549
     18546     18549     18550     18546     18549     18551     18546     18549     18557
     18547     18546     18548     18547     18546     18549     18548     18546     18549
     18549     18551     18552     18549     18557     18558     18549     18557     18559
     18549     18557     18560     18550     18549     18551     18550     18549     18557
     18551     18549     18557     18551     18552     18553     18551     18552     18554
     18552     18554     18555     18552     18554     18556     18552     18554     18566
     18553     18552     18554     18554     18566     18567     18554     18566     18568
     18554     18566     18569     18555     18554     18556     18555     18554     18566
     18556     18554     18566     18557     18560     18561     18558     18557     18559
     18558     18557     18560     18559     18557     18560     18560     18561     18562
     18560     18561     18563     18561     18563     18564     18561     18563     18565
     18561     18563     18611     18562     18561     18563     18563     18611     18612
     18563     18611     18613     18563     18611     18614     18564     18563     18565
     18564     18563     18611     18565     18563     18611     18566     18569     18570
     18566     18569     18571     18566     18569     18572     18567     18566     18568
     18567     18566     18569     18568     18566     18569     18569     18572     18573
     18569     18572     18574     18569     18572     18575     18570     18569     18571
     18570     18569     18572     18571     18569     18572     18572     18575     18576
     18572     18575     18577     18572     18575     18578     18573     18572     18574
     18573     18572     18575     18574     18572     18575     18575     18578     18579
     18575     18578     18580     18575     18578     18581     18576     18575     18577
     18576     18575     18578     18577     18575     18578     18578     18581     18582
     18578     18581     18583     18578     18581     18584     18579     18578     18580
     18579     18578     18581     18580     18578     18581     18581     18584     18585
     18581     18584     18586     18582     18581     18583     18582     18581     18584
     18583     18581     18584     18584     18586     18587     18584     18586     18588
     18585     18584     18586     18586     18588     18589     18586     18588     18590
     18586     18588     18591     18587     18586     18588     18588     18591     18592
     18588     18591     18593     18589     18588     18590     18589     18588     18591
     18590     18588     18591     18591     18593     18594     18591     18593     18595
     18592     18591     18593     18593     18595     18596     18593     18595     18597
     18593     18595     18598     18594     18593     18595     18595     18598     18599
     18595     18598     18600     18595     18598     18601     18596     18595     18597
     18596     18595     18598     18597     18595     18598     18598     18601     18602
     18598     18601     18603     18598     18601     18604     18599     18598     18600
     18599     18598     18601     18600     18598     18601     18601     18604     18605
     18601     18604     18606     18601     18604     18607     18602     18601     18603
     18602     18601     18604     18603     18601     18604     18604     18607     18608
     18604     18607     18609     18604     18607     18610     18605     18604     18606
     18605     18604     18607     18606     18604     18607     18608     18607     18609
     18608     18607     18610     18609     18607     18610     18611     18614     18615
     18611     18614     18616     18611     18614     18617     18612     18611     18613
     18612     18611     18614     18613     18611     18614     18614     18617     18618
     18614     18617     18619     18614     18617     18620     18615     18614     18616
     18615     18614     18617     18616     18614     18617     18617     18620     18621
     18617     18620     18622     18617     18620     18623     18618     18617     18619
     18618     18617     18620     18619     18617     18620     18620     18623     18624
     18620     18623     18625     18620     18623     18626     18621     18620     18622
     18621     18620     18623     18622     18620     18623     18623     18626     18627
     18623     18626     18628     18623     18626     18629     18624     18623     18625
     18624     18623     18626     18625     18623     18626     18626     18629     18630
     18626     18629     18631     18626     18629     18632     18627     18626     18628
     18627     18626     18629     18628     18626     18629     18629     18632     18633
     18629     18632     18634     18629     18632     18635     18630     18629     18631
     18630     18629     18632     18631     18629     18632     18632     18635     18636
     18632     18635     18637     18632     18635     18638     18633     18632     18634
     18633     18632     18635     18634     18632     18635     18635     18638     18639
     18635     18638     18640     18635     18638     18641     18636     18635     18637
     18636     18635     18638     18637     18635     18638     18638     18641     18642
     18638     18641     18643     18638     18641     18644     18639     18638     18640
     18639     18638     18641     18640     18638     18641     18641     18644     18645
     18641     18644     18646     18641     18644     18647     18642     18641     18643
     18642     18641     18644     18643     18641     18644     18644     18647     18648
     18644     18647     18649     18644     18647     18650     18645     18644     18646
     18645     18644     18647     18646     18644     18647     18647     18650     18651
     18647     18650     18652     18647     18650     18653     18648     18647     18649
     18648     18647     18650     18649     18647     18650     18650     18653     18654
     18650     18653     18655     18650     18653     18656     18651     18650     18652
     18651     18650     18653     18652     18650     18653     18653     18656     18657
     18653     18656     18658     18653     18656     18659     18654     18653     18655
     18654     18653     18656     18655     18653     18656     18657     18656     18658
     18657     18656     18659     18658     18656     18659     18660     18661     18662
     18660     18661     18663     18660     18661     18664     18660     18665     18666
     18660     18665     18667     18660     18665     18668     18660     18669     18670
     18660     18669     18671     18660     18669     18672     18660     18673     18674
     18660     18673     18675     18660     18673     18676     18661     18660     18665
     18661     18660     18669     18661     18660     18673     18662     18661     18663
     18662     18661     18664     18663     18661     18664     18665     18660     18669
     18665     18660     18673     18666     18665     18667     18666     18665     18668
     18667     18665     18668     18669     18660     18673     18670     18669     18671
     18670     18669     18672     18671     18669     18672     18673     18676     18677
     18673     18676     18678     18673     18676     18683     18674     18673     18675
     18674     18673     18676     18675     18673     18676     18676     18683     18679
     18677     18676     18678     18677     18676     18683     18678     18676     18683
     18679     18682     18684     18680     18679     18681     18680     18679     18682
     18680     18679     18683     18681     18679     18682     18681     18679     18683
     18682     18679     18683     18682     18684     18685     18682     18684     18686
     18682     18684     18689     18684     18689     18687     18684     18689     18690
     18684     18689     18691     18685     18684     18686     18685     18684     18689
     18686     18684     18689     18687     18689     18690     18687     18689     18691
     18687     18739     18740     18687     18739     18741     18688     18687     18689
     18688     18687     18739     18689     18687     18739     18689     18691     18692
     18689     18691     18693     18689     18691     18695     18690     18689     18691
     18691     18693     18694     18691     18695     18696     18691     18695     18697
     18692     18691     18693     18692     18691     18695     18693     18691     18695
     18695     18697     18698     18695     18697     18699     18696     18695     18697
     18697     18699     18700     18697     18699     18701     18697     18699     18702
     18698     18697     18699     18699     18702     18703     18699     18702     18704
     18699     18702     18705     18700     18699     18701     18700     18699     18702
     18701     18699     18702     18702     18705     18706     18702     18705     18707
     18702     18705     18708     18703     18702     18704     18703     18702     18705
     18704     18702     18705     18705     18708     18709     18705     18708     18710
     18705     18708     18711     18706     18705     18707     18706     18705     18708
     18707     18705     18708     18708     18711     18712     18708     18711     18713
     18708     18711     18714     18709     18708     18710     18709     18708     18711
     18710     18708     18711     18711     18714     18715     18711     18714     18716
     18711     18714     18717     18712     18711     18713     18712     18711     18714
     18713     18711     18714     18714     18717     18718     18714     18717     18719
     18714     18717     18720     18715     18714     18716     18715     18714     18717
     18716     18714     18717     18717     18720     18721     18717     18720     18722
     18717     18720     18723     18718     18717     18719     18718     18717     18720
     18719     18717     18720     18720     18723     18724     18720     18723     18725
     18720     18723     18726     18721     18720     18722     18721     18720     18723
     18722     18720     18723     18723     18726     18727     18723     18726     18728
     18723     18726     18729     18724     18723     18725     18724     18723     18726
     18725     18723     18726     18726     18729     18730     18726     18729     18731
     18726     18729     18732     18727     18726     18728     18727     18726     18729
     18728     18726     18729     18729     18732     18733     18729     18732     18734
     18729     18732     18735     18730     18729     18731     18730     18729     18732
     18731     18729     18732     18732     18735     18736     18732     18735     18737
     18732     18735     18738     18733     18732     18734     18733     18732     18735
     18734     18732     18735     18736     18735     18737     18736     18735     18738
     18737     18735     18738     18739     18741     18742     18739     18741     18743
     18739     18741     18744     18740     18739     18741     18741     18744     18745
     18741     18744     18746     18741     18744     18747     18742     18741     18743
     18742     18741     18744     18743     18741     18744     18744     18747     18748
     18744     18747     18749     18744     18747     18750     18745     18744     18746
     18745     18744     18747     18746     18744     18747     18747     18750     18751
     18747     18750     18752     18747     18750     18753     18748     18747     18749
     18748     18747     18750     18749     18747     18750     18750     18753     18754
     18750     18753     18755     18750     18753     18756     18751     18750     18752
     18751     18750     18753     18752     18750     18753     18753     18756     18757
     18753     18756     18758     18753     18756     18759     18754     18753     18755
     18754     18753     18756     18755     18753     18756     18756     18759     18760
     18756     18759     18761     18756     18759     18762     18757     18756     18758
     18757     18756     18759     18758     18756     18759     18759     18762     18763
     18759     18762     18764     18760     18759     18761     18760     18759     18762
     18761     18759     18762     18762     18764     18765     18762     18764     18766
     18763     18762     18764     18764     18766     18767     18764     18766     18768
     18764     18766     18769     18765     18764     18766     18766     18769     18770
     18766     18769     18771     18766     18769     18772     18767     18766     18768
     18767     18766     18769     18768     18766     18769     18769     18772     18773
     18769     18772     18774     18769     18772     18775     18770     18769     18771
     18770     18769     18772     18771     18769     18772     18772     18775     18776
     18772     18775     18777     18772     18775     18778     18773     18772     18774
     18773     18772     18775     18774     18772     18775     18775     18778     18779
     18775     18778     18780     18775     18778     18781     18776     18775     18777
     18776     18775     18778     18777     18775     18778     18778     18781     18782
     18778     18781     18783     18778     18781     18784     18779     18778     18780
     18779     18778     18781     18780     18778     18781     18781     18784     18785
     18781     18784     18786     18781     18784     18787     18782     18781     18783
     18782     18781     18784     18783     18781     18784     18784     18787     18788
     18784     18787     18789     18784     18787     18790     18785     18784     18786
     18785     18784     18787     18786     18784     18787     18788     18787     18789
     18788     18787     18790     18789     18787     18790     18791     18792     18793
     18791     18792     18794     18791     18792     18795     18791     18796     18797
     18791     18796     18798     18791     18796     18799     18791     18800     18801
     18791     18800     18802     18791     18800     18803     18791     18804     18805
     18791     18804     18806     18791     18804     18807     18792     18791     18796
     18792     18791     18800     18792     18791     18804     18793     18792     18794
     18793     18792     18795     18794     18792     18795     18796     18791     18800
     18796     18791     18804     18797     18796     18798     18797     18796     18799
     18798     18796     18799     18800     18791     18804     18801     18800     18802
     18801     18800     18803     18802     18800     18803     18804     18807     18808
     18804     18807     18809     18804     18807     18814     18805     18804     18806
     18805     18804     18807     18806     18804     18807     18807     18814     18810
     18808     18807     18809     18808     18807     18814     18809     18807     18814
     18810     18813     18815     18811     18810     18812     18811     18810     18813
     18811     18810     18814     18812     18810     18813     18812     18810     18814
     18813     18810     18814     18813     18815     18816     18813     18815     18817
     18813     18815     18820     18815     18820     18818     18815     18820     18821
     18815     18820     18822     18816     18815     18817     18816     18815     18820
     18817     18815     18820     18818     18820     18821     18818     18820     18822
     18818     18870     18871     18818     18870     18872     18819     18818     18820
     18819     18818     18870     18820     18818     18870     18820     18822     18823
     18820     18822     18824     18820     18822     18826     18821     18820     18822
     18822     18824     18825     18822     18826     18827     18822     18826     18828
     18823     18822     18824     18823     18822     18826     18824     18822     18826
     18826     18828     18829     18826     18828     18830     18827     18826     18828
     18828     18830     18831     18828     18830     18832     18828     18830     18833
     18829     18828     18830     18830     18833     18834     18830     18833     18835
     18830     18833     18836     18831     18830     18832     18831     18830     18833
     18832     18830     18833     18833     18836     18837     18833     18836     18838
     18833     18836     18839     18834     18833     18835     18834     18833     18836
     18835     18833     18836     18836     18839     18840     18836     18839     18841
     18836     18839     18842     18837     18836     18838     18837     18836     18839
     18838     18836     18839     18839     18842     18843     18839     18842     18844
     18839     18842     18845     18840     18839     18841     18840     18839     18842
     18841     18839     18842     18842     18845     18846     18842     18845     18847
     18842     18845     18848     18843     18842     18844     18843     18842     18845
     18844     18842     18845     18845     18848     18849     18845     18848     18850
     18845     18848     18851     18846     18845     18847     18846     18845     18848
     18847     18845     18848     18848     18851     18852     18848     18851     18853
     18848     18851     18854     18849     18848     18850     18849     18848     18851
     18850     18848     18851     18851     18854     18855     18851     18854     18856
     18851     18854     18857     18852     18851     18853     18852     18851     18854
     18853     18851     18854     18854     18857     18858     18854     18857     18859
     18854     18857     18860     18855     18854     18856     18855     18854     18857
     18856     18854     18857     18857     18860     18861     18857     18860     18862
     18857     18860     18863     18858     18857     18859     18858     18857     18860
     18859     18857     18860     18860     18863     18864     18860     18863     18865
     18860     18863     18866     18861     18860     18862     18861     18860     18863
     18862     18860     18863     18863     18866     18867     18863     18866     18868
     18863     18866     18869     18864     18863     18865     18864     18863     18866
     18865     18863     18866     18867     18866     18868     18867     18866     18869
     18868     18866     18869     18870     18872     18873     18870     18872     18874
     18870     18872     18875     18871     18870     18872     18872     18875     18876
     18872     18875     18877     18872     18875     18878     18873     18872     18874
     18873     18872     18875     18874     18872     18875     18875     18878     18879
     18875     18878     18880     18875     18878     18881     18876     18875     18877
     18876     18875     18878     18877     18875     18878     18878     18881     18882
     18878     18881     18883     18878     18881     18884     18879     18878     18880
     18879     18878     18881     18880     18878     18881     18881     18884     18885
     18881     18884     18886     18881     18884     18887     18882     18881     18883
     18882     18881     18884     18883     18881     18884     18884     18887     18888
     18884     18887     18889     18884     18887     18890     18885     18884     18886
     18885     18884     18887     18886     18884     18887     18887     18890     18891
     18887     18890     18892     18887     18890     18893     18888     18887     18889
     18888     18887     18890     18889     18887     18890     18890     18893     18894
     18890     18893     18895     18891     18890     18892     18891     18890     18893
     18892     18890     18893     18893     18895     18896     18893     18895     18897
     18894     18893     18895     18895     18897     18898     18895     18897     18899
     18895     18897     18900     18896     18895     18897     18897     18900     18901
     18897     18900     18902     18897     18900     18903     18898     18897     18899
     18898     18897     18900     18899     18897     18900     18900     18903     18904
     18900     18903     18905     18900     18903     18906     18901     18900     18902
     18901     18900     18903     18902     18900     18903     18903     18906     18907
     18903     18906     18908     18903     18906     18909     18904     18903     18905
     18904     18903     18906     18905     18903     18906     18906     18909     18910
     18906     18909     18911     18906     18909     18912     18907     18906     18908
     18907     18906     18909     18908     18906     18909     18909     18912     18913
     18909     18912     18914     18909     18912     18915     18910     18909     18911
     18910     18909     18912     18911     18909     18912     18912     18915     18916
     18912     18915     18917     18912     18915     18918     18913     18912     18914
     18913     18912     18915     18914     18912     18915     18915     18918     18919
     18915     18918     18920     18915     18918     18921     18916     18915     18917
     18916     18915     18918     18917     18915     18918     18919     18918     18920
     18919     18918     18921     18920     18918     18921     18922     18926     18927
     18922     18926     18928     18922     18926     18929     18923     18922     18924
     18923     18922     18925     18923     18922     18926     18924     18922     18925
     18924     18922     18926     18925     18922     18926     18926     18929     18930
     18926     18929     18931     18926     18929     18935     18927     18926     18928
     18927     18926     18929     18928     18926     18929     18929     18935     18932
     18930     18929     18931     18930     18929     18935     18931     18929     18935
     18932     18936     18937     18933     18932     18934     18933     18932     18935
     18933     18932     18936     18934     18932     18935     18934     18932     18936
     18935     18932     18936     18936     18937     18938     18936     18937     18939
     18936     18937     18940     18937     18940     18941     18937     18940     18942
     18937     18940     18948     18938     18937     18939     18938     18937     18940
     18939     18937     18940     18940     18942     18943     18940     18948     18949
     18940     18948     18950     18940     18948     18951     18941     18940     18942
     18941     18940     18948     18942     18940     18948     18942     18943     18944
     18942     18943     18945     18943     18945     18946     18943     18945     18947
     18943     18945     18957     18944     18943     18945     18945     18957     18958
     18945     18957     18959     18945     18957     18960     18946     18945     18947
     18946     18945     18957     18947     18945     18957     18948     18951     18952
     18949     18948     18950     18949     18948     18951     18950     18948     18951
     18951     18952     18953     18951     18952     18954     18952     18954     18955
     18952     18954     18956     18952     18954     19004     18953     18952     18954
     18954     19004     19005     18954     19004     19006     18954     19004     19007
     18955     18954     18956     18955     18954     19004     18956     18954     19004
     18957     18960     18961     18957     18960     18962     18957     18960     18963
     18958     18957     18959     18958     18957     18960     18959     18957     18960
     18960     18963     18964     18960     18963     18965     18961     18960     18962
     18961     18960     18963     18962     18960     18963     18963     18965     18966
     18963     18965     18967     18964     18963     18965     18965     18967     18968
     18965     18967     18969     18965     18967     18970     18966     18965     18967
     18967     18970     18971     18967     18970     18972     18968     18967     18969
     18968     18967     18970     18969     18967     18970     18970     18972     18973
     18970     18972     18974     18971     18970     18972     18972     18974     18975
     18972     18974     18976     18972     18974     18977     18973     18972     18974
     18974     18977     18978     18974     18977     18979     18975     18974     18976
     18975     18974     18977     18976     18974     18977     18977     18979     18980
     18977     18979     18981     18978     18977     18979     18979     18981     18982
     18979     18981     18983     18979     18981     18984     18980     18979     18981
     18981     18984     18985     18981     18984     18986     18982     18981     18983
     18982     18981     18984     18983     18981     18984     18984     18986     18987
     18984     18986     18988     18985     18984     18986     18986     18988     18989
     18986     18988     18990     18986     18988     18991     18987     18986     18988
     18988     18991     18992     18988     18991     18993     18988     18991     18994
     18989     18988     18990     18989     18988     18991     18990     18988     18991
     18991     18994     18995     18991     18994     18996     18991     18994     18997
     18992     18991     18993     18992     18991     18994     18993     18991     18994
     18994     18997     18998     18994     18997     18999     18994     18997     19000
     18995     18994     18996     18995     18994     18997     18996     18994     18997
     18997     19000     19001     18997     19000     19002     18997     19000     19003
     18998     18997     18999     18998     18997     19000     18999     18997     19000
     19001     19000     19002     19001     19000     19003     19002     19000     19003
     19004     19007     19008     19004     19007     19009     19004     19007     19010
     19005     19004     19006     19005     19004     19007     19006     19004     19007
     19007     19010     19011     19007     19010     19012     19007     19010     19013
     19008     19007     19009     19008     19007     19010     19009     19007     19010
     19010     19013     19014     19010     19013     19015     19010     19013     19016
     19011     19010     19012     19011     19010     19013     19012     19010     19013
     19013     19016     19017     19013     19016     19018     19013     19016     19019
     19014     19013     19015     19014     19013     19016     19015     19013     19016
     19016     19019     19020     19016     19019     19021     19016     19019     19022
     19017     19016     19018     19017     19016     19019     19018     19016     19019
     19019     19022     19023     19019     19022     19024     19019     19022     19025
     19020     19019     19021     19020     19019     19022     19021     19019     19022
     19022     19025     19026     19022     19025     19027     19022     19025     19028
     19023     19022     19024     19023     19022     19025     19024     19022     19025
     19025     19028     19029     19025     19028     19030     19025     19028     19031
     19026     19025     19027     19026     19025     19028     19027     19025     19028
     19028     19031     19032     19028     19031     19033     19028     19031     19034
     19029     19028     19030     19029     19028     19031     19030     19028     19031
     19031     19034     19035     19031     19034     19036     19031     19034     19037
     19032     19031     19033     19032     19031     19034     19033     19031     19034
     19034     19037     19038     19034     19037     19039     19034     19037     19040
     19035     19034     19036     19035     19034     19037     19036     19034     19037
     19037     19040     19041     19037     19040     19042     19037     19040     19043
     19038     19037     19039     19038     19037     19040     19039     19037     19040
     19040     19043     19044     19040     19043     19045     19040     19043     19046
     19041     19040     19042     19041     19040     19043     19042     19040     19043
     19043     19046     19047     19043     19046     19048     19043     19046     19049
     19044     19043     19045     19044     19043     19046     19045     19043     19046
     19046     19049     19050     19046     19049     19051     19046     19049     19052
     19047     19046     19048     19047     19046     19049     19048     19046     19049
     19050     19049     19051     19050     19049     19052     19051     19049     19052
     19053     19057     19058     19053     19057     19059     19053     19057     19060
     19054     19053     19055     19054     19053     19056     19054     19053     19057
     19055     19053     19056     19055     19053     19057     19056     19053     19057
     19057     19060     19061     19057     19060     19062     19057     19060     19066
     19058     19057     19059     19058     19057     19060     19059     19057     19060
     19060     19066     19063     19061     19060     19062     19061     19060     19066
     19062     19060     19066     19063     19067     19068     19064     19063     19065
     19064     19063     19066     19064     19063     19067     19065     19063     19066
     19065     19063     19067     19066     19063     19067     19067     19068     19069
     19067     19068     19070     19067     19068     19071     19068     19071     19072
     19068     19071     19073     19068     19071     19079     19069     19068     19070
     19069     19068     19071     19070     19068     19071     19071     19073     19074
     19071     19079     19080     19071     19079     19081     19071     19079     19082
     19072     19071     19073     19072     19071     19079     19073     19071     19079
     19073     19074     19075     19073     19074     19076     19074     19076     19077
     19074     19076     19078     19074     19076     19088     19075     19074     19076
     19076     19088     19089     19076     19088     19090     19076     19088     19091
     19077     19076     19078     19077     19076     19088     19078     19076     19088
     19079     19082     19083     19080     19079     19081     19080     19079     19082
     19081     19079     19082     19082     19083     19084     19082     19083     19085
     19083     19085     19086     19083     19085     19087     19083     19085     19135
     19084     19083     19085     19085     19135     19136     19085     19135     19137
     19085     19135     19138     19086     19085     19087     19086     19085     19135
     19087     19085     19135     19088     19091     19092     19088     19091     19093
     19088     19091     19094     19089     19088     19090     19089     19088     19091
     19090     19088     19091     19091     19094     19095     19091     19094     19096
     19092     19091     19093     19092     19091     19094     19093     19091     19094
     19094     19096     19097     19094     19096     19098     19095     19094     19096
     19096     19098     19099     19096     19098     19100     19096     19098     19101
     19097     19096     19098     19098     19101     19102     19098     19101     19103
     19099     19098     19100     19099     19098     19101     19100     19098     19101
     19101     19103     19104     19101     19103     19105     19102     19101     19103
     19103     19105     19106     19103     19105     19107     19103     19105     19108
     19104     19103     19105     19105     19108     19109     19105     19108     19110
     19106     19105     19107     19106     19105     19108     19107     19105     19108
     19108     19110     19111     19108     19110     19112     19109     19108     19110
     19110     19112     19113     19110     19112     19114     19110     19112     19115
     19111     19110     19112     19112     19115     19116     19112     19115     19117
     19113     19112     19114     19113     19112     19115     19114     19112     19115
     19115     19117     19118     19115     19117     19119     19116     19115     19117
     19117     19119     19120     19117     19119     19121     19117     19119     19122
     19118     19117     19119     19119     19122     19123     19119     19122     19124
     19119     19122     19125     19120     19119     19121     19120     19119     19122
     19121     19119     19122     19122     19125     19126     19122     19125     19127
     19122     19125     19128     19123     19122     19124     19123     19122     19125
     19124     19122     19125     19125     19128     19129     19125     19128     19130
     19125     19128     19131     19126     19125     19127     19126     19125     19128
     19127     19125     19128     19128     19131     19132     19128     19131     19133
     19128     19131     19134     19129     19128     19130     19129     19128     19131
     19130     19128     19131     19132     19131     19133     19132     19131     19134
     19133     19131     19134     19135     19138     19139     19135     19138     19140
     19135     19138     19141     19136     19135     19137     19136     19135     19138
     19137     19135     19138     19138     19141     19142     19138     19141     19143
     19138     19141     19144     19139     19138     19140     19139     19138     19141
     19140     19138     19141     19141     19144     19145     19141     19144     19146
     19141     19144     19147     19142     19141     19143     19142     19141     19144
     19143     19141     19144     19144     19147     19148     19144     19147     19149
     19144     19147     19150     19145     19144     19146     19145     19144     19147
     19146     19144     19147     19147     19150     19151     19147     19150     19152
     19147     19150     19153     19148     19147     19149     19148     19147     19150
     19149     19147     19150     19150     19153     19154     19150     19153     19155
     19150     19153     19156     19151     19150     19152     19151     19150     19153
     19152     19150     19153     19153     19156     19157     19153     19156     19158
     19153     19156     19159     19154     19153     19155     19154     19153     19156
     19155     19153     19156     19156     19159     19160     19156     19159     19161
     19156     19159     19162     19157     19156     19158     19157     19156     19159
     19158     19156     19159     19159     19162     19163     19159     19162     19164
     19159     19162     19165     19160     19159     19161     19160     19159     19162
     19161     19159     19162     19162     19165     19166     19162     19165     19167
     19162     19165     19168     19163     19162     19164     19163     19162     19165
     19164     19162     19165     19165     19168     19169     19165     19168     19170
     19165     19168     19171     19166     19165     19167     19166     19165     19168
     19167     19165     19168     19168     19171     19172     19168     19171     19173
     19168     19171     19174     19169     19168     19170     19169     19168     19171
     19170     19168     19171     19171     19174     19175     19171     19174     19176
     19171     19174     19177     19172     19171     19173     19172     19171     19174
     19173     19171     19174     19174     19177     19178     19174     19177     19179
     19174     19177     19180     19175     19174     19176     19175     19174     19177
     19176     19174     19177     19177     19180     19181     19177     19180     19182
     19177     19180     19183     19178     19177     19179     19178     19177     19180
     19179     19177     19180     19181     19180     19182     19181     19180     19183
     19182     19180     19183     19184     19185     19186     19184     19185     19187
     19184     19185     19200     19184     19188     19189     19184     19188     19190
     19184     19188     19191     19184     19192     19193     19184     19192     19194
     19184     19192     19195     19184     19196     19197     19184     19196     19198
     19184     19196     19199     19185     19184     19188     19185     19184     19192
     19185     19184     19196     19185     19200     19201     19185     19200     19202
     19185     19200     19206     19186     19185     19187     19186     19185     19200
     19187     19185     19200     19188     19184     19192     19188     19184     19196
     19189     19188     19190     19189     19188     19191     19190     19188     19191
     19192     19184     19196     19193     19192     19194     19193     19192     19195
     19194     19192     19195     19197     19196     19198     19197     19196     19199
     19198     19196     19199     19200     19206     19203     19201     19200     19202
     19201     19200     19206     19202     19200     19206     19203     19207     19208
     19204     19203     19205     19204     19203     19206     19204     19203     19207
     19205     19203     19206     19205     19203     19207     19206     19203     19207
     19207     19208     19209     19207     19208     19210     19207     19208     19211
     19208     19211     19212     19208     19211     19213     19208     19211     19219
     19209     19208     19210     19209     19208     19211     19210     19208     19211
     19211     19213     19214     19211     19219     19220     19211     19219     19221
     19211     19219     19222     19212     19211     19213     19212     19211     19219
     19213     19211     19219     19213     19214     19215     19213     19214     19216
     19214     19216     19217     19214     19216     19218     19214     19216     19228
     19215     19214     19216     19216     19228     19229     19216     19228     19230
     19216     19228     19231     19217     19216     19218     19217     19216     19228
     19218     19216     19228     19219     19222     19223     19220     19219     19221
     19220     19219     19222     19221     19219     19222     19222     19223     19224
     19222     19223     19225     19223     19225     19226     19223     19225     19227
     19223     19225     19275     19224     19223     19225     19225     19275     19276
     19225     19275     19277     19225     19275     19278     19226     19225     19227
     19226     19225     19275     19227     19225     19275     19228     19231     19232
     19228     19231     19233     19228     19231     19234     19229     19228     19230
     19229     19228     19231     19230     19228     19231     19231     19234     19235
     19231     19234     19236     19232     19231     19233     19232     19231     19234
     19233     19231     19234     19234     19236     19237     19234     19236     19238
     19235     19234     19236     19236     19238     19239     19236     19238     19240
     19236     19238     19241     19237     19236     19238     19238     19241     19242
     19238     19241     19243     19239     19238     19240     19239     19238     19241
     19240     19238     19241     19241     19243     19244     19241     19243     19245
     19242     19241     19243     19243     19245     19246     19243     19245     19247
     19243     19245     19248     19244     19243     19245     19245     19248     19249
     19245     19248     19250     19246     19245     19247     19246     19245     19248
     19247     19245     19248     19248     19250     19251     19248     19250     19252
     19249     19248     19250     19250     19252     19253     19250     19252     19254
     19250     19252     19255     19251     19250     19252     19252     19255     19256
     19252     19255     19257     19253     19252     19254     19253     19252     19255
     19254     19252     19255     19255     19257     19258     19255     19257     19259
     19256     19255     19257     19257     19259     19260     19257     19259     19261
     19257     19259     19262     19258     19257     19259     19259     19262     19263
     19259     19262     19264     19259     19262     19265     19260     19259     19261
     19260     19259     19262     19261     19259     19262     19262     19265     19266
     19262     19265     19267     19262     19265     19268     19263     19262     19264
     19263     19262     19265     19264     19262     19265     19265     19268     19269
     19265     19268     19270     19265     19268     19271     19266     19265     19267
     19266     19265     19268     19267     19265     19268     19268     19271     19272
     19268     19271     19273     19268     19271     19274     19269     19268     19270
     19269     19268     19271     19270     19268     19271     19272     19271     19273
     19272     19271     19274     19273     19271     19274     19275     19278     19279
     19275     19278     19280     19275     19278     19281     19276     19275     19277
     19276     19275     19278     19277     19275     19278     19278     19281     19282
     19278     19281     19283     19278     19281     19284     19279     19278     19280
     19279     19278     19281     19280     19278     19281     19281     19284     19285
     19281     19284     19286     19281     19284     19287     19282     19281     19283
     19282     19281     19284     19283     19281     19284     19284     19287     19288
     19284     19287     19289     19284     19287     19290     19285     19284     19286
     19285     19284     19287     19286     19284     19287     19287     19290     19291
     19287     19290     19292     19287     19290     19293     19288     19287     19289
     19288     19287     19290     19289     19287     19290     19290     19293     19294
     19290     19293     19295     19290     19293     19296     19291     19290     19292
     19291     19290     19293     19292     19290     19293     19293     19296     19297
     19293     19296     19298     19293     19296     19299     19294     19293     19295
     19294     19293     19296     19295     19293     19296     19296     19299     19300
     19296     19299     19301     19296     19299     19302     19297     19296     19298
     19297     19296     19299     19298     19296     19299     19299     19302     19303
     19299     19302     19304     19299     19302     19305     19300     19299     19301
     19300     19299     19302     19301     19299     19302     19302     19305     19306
     19302     19305     19307     19302     19305     19308     19303     19302     19304
     19303     19302     19305     19304     19302     19305     19305     19308     19309
     19305     19308     19310     19305     19308     19311     19306     19305     19307
     19306     19305     19308     19307     19305     19308     19308     19311     19312
     19308     19311     19313     19308     19311     19314     19309     19308     19310
     19309     19308     19311     19310     19308     19311     19311     19314     19315
     19311     19314     19316     19311     19314     19317     19312     19311     19313
     19312     19311     19314     19313     19311     19314     19314     19317     19318
     19314     19317     19319     19314     19317     19320     19315     19314     19316
     19315     19314     19317     19316     19314     19317     19317     19320     19321
     19317     19320     19322     19317     19320     19323     19318     19317     19319
     19318     19317     19320     19319     19317     19320     19321     19320     19322
     19321     19320     19323     19322     19320     19323     19324     19325     19326
     19324     19325     19327     19324     19325     19340     19324     19328     19329
     19324     19328     19330     19324     19328     19331     19324     19332     19333
     19324     19332     19334     19324     19332     19335     19324     19336     19337
     19324     19336     19338     19324     19336     19339     19325     19324     19328
     19325     19324     19332     19325     19324     19336     19325     19340     19341
     19325     19340     19342     19325     19340     19346     19326     19325     19327
     19326     19325     19340     19327     19325     19340     19328     19324     19332
     19328     19324     19336     19329     19328     19330     19329     19328     19331
     19330     19328     19331     19332     19324     19336     19333     19332     19334
     19333     19332     19335     19334     19332     19335     19337     19336     19338
     19337     19336     19339     19338     19336     19339     19340     19346     19343
     19341     19340     19342     19341     19340     19346     19342     19340     19346
     19343     19347     19348     19344     19343     19345     19344     19343     19346
     19344     19343     19347     19345     19343     19346     19345     19343     19347
     19346     19343     19347     19347     19348     19349     19347     19348     19350
     19347     19348     19351     19348     19351     19352     19348     19351     19353
     19348     19351     19359     19349     19348     19350     19349     19348     19351
     19350     19348     19351     19351     19353     19354     19351     19359     19360
     19351     19359     19361     19351     19359     19362     19352     19351     19353
     19352     19351     19359     19353     19351     19359     19353     19354     19355
     19353     19354     19356     19354     19356     19357     19354     19356     19358
     19354     19356     19368     19355     19354     19356     19356     19368     19369
     19356     19368     19370     19356     19368     19371     19357     19356     19358
     19357     19356     19368     19358     19356     19368     19359     19362     19363
     19360     19359     19361     19360     19359     19362     19361     19359     19362
     19362     19363     19364     19362     19363     19365     19363     19365     19366
     19363     19365     19367     19363     19365     19415     19364     19363     19365
     19365     19415     19416     19365     19415     19417     19365     19415     19418
     19366     19365     19367     19366     19365     19415     19367     19365     19415
     19368     19371     19372     19368     19371     19373     19368     19371     19374
     19369     19368     19370     19369     19368     19371     19370     19368     19371
     19371     19374     19375     19371     19374     19376     19372     19371     19373
     19372     19371     19374     19373     19371     19374     19374     19376     19377
     19374     19376     19378     19375     19374     19376     19376     19378     19379
     19376     19378     19380     19376     19378     19381     19377     19376     19378
     19378     19381     19382     19378     19381     19383     19379     19378     19380
     19379     19378     19381     19380     19378     19381     19381     19383     19384
     19381     19383     19385     19382     19381     19383     19383     19385     19386
     19383     19385     19387     19383     19385     19388     19384     19383     19385
     19385     19388     19389     19385     19388     19390     19386     19385     19387
     19386     19385     19388     19387     19385     19388     19388     19390     19391
     19388     19390     19392     19389     19388     19390     19390     19392     19393
     19390     19392     19394     19390     19392     19395     19391     19390     19392
     19392     19395     19396     19392     19395     19397     19393     19392     19394
     19393     19392     19395     19394     19392     19395     19395     19397     19398
     19395     19397     19399     19396     19395     19397     19397     19399     19400
     19397     19399     19401     19397     19399     19402     19398     19397     19399
     19399     19402     19403     19399     19402     19404     19399     19402     19405
     19400     19399     19401     19400     19399     19402     19401     19399     19402
     19402     19405     19406     19402     19405     19407     19402     19405     19408
     19403     19402     19404     19403     19402     19405     19404     19402     19405
     19405     19408     19409     19405     19408     19410     19405     19408     19411
     19406     19405     19407     19406     19405     19408     19407     19405     19408
     19408     19411     19412     19408     19411     19413     19408     19411     19414
     19409     19408     19410     19409     19408     19411     19410     19408     19411
     19412     19411     19413     19412     19411     19414     19413     19411     19414
     19415     19418     19419     19415     19418     19420     19415     19418     19421
     19416     19415     19417     19416     19415     19418     19417     19415     19418
     19418     19421     19422     19418     19421     19423     19418     19421     19424
     19419     19418     19420     19419     19418     19421     19420     19418     19421
     19421     19424     19425     19421     19424     19426     19421     19424     19427
     19422     19421     19423     19422     19421     19424     19423     19421     19424
     19424     19427     19428     19424     19427     19429     19424     19427     19430
     19425     19424     19426     19425     19424     19427     19426     19424     19427
     19427     19430     19431     19427     19430     19432     19427     19430     19433
     19428     19427     19429     19428     19427     19430     19429     19427     19430
     19430     19433     19434     19430     19433     19435     19430     19433     19436
     19431     19430     19432     19431     19430     19433     19432     19430     19433
     19433     19436     19437     19433     19436     19438     19433     19436     19439
     19434     19433     19435     19434     19433     19436     19435     19433     19436
     19436     19439     19440     19436     19439     19441     19436     19439     19442
     19437     19436     19438     19437     19436     19439     19438     19436     19439
     19439     19442     19443     19439     19442     19444     19439     19442     19445
     19440     19439     19441     19440     19439     19442     19441     19439     19442
     19442     19445     19446     19442     19445     19447     19442     19445     19448
     19443     19442     19444     19443     19442     19445     19444     19442     19445
     19445     19448     19449     19445     19448     19450     19445     19448     19451
     19446     19445     19447     19446     19445     19448     19447     19445     19448
     19448     19451     19452     19448     19451     19453     19448     19451     19454
     19449     19448     19450     19449     19448     19451     19450     19448     19451
     19451     19454     19455     19451     19454     19456     19451     19454     19457
     19452     19451     19453     19452     19451     19454     19453     19451     19454
     19454     19457     19458     19454     19457     19459     19454     19457     19460
     19455     19454     19456     19455     19454     19457     19456     19454     19457
     19457     19460     19461     19457     19460     19462     19457     19460     19463
     19458     19457     19459     19458     19457     19460     19459     19457     19460
     19461     19460     19462     19461     19460     19463     19462     19460     19463
     19464     19468     19469     19464     19468     19470     19464     19468     19473
     19465     19464     19466     19465     19464     19467     19465     19464     19468
     19466     19464     19467     19466     19464     19468     19467     19464     19468
     19468     19470     19471     19468     19470     19472     19468     19473     19474
     19468     19473     19475     19468     19473     19479     19469     19468     19470
     19469     19468     19473     19470     19468     19473     19471     19470     19472
     19473     19479     19476     19474     19473     19475     19474     19473     19479
     19475     19473     19479     19476     19480     19481     19477     19476     19478
     19477     19476     19479     19477     19476     19480     19478     19476     19479
     19478     19476     19480     19479     19476     19480     19480     19481     19482
     19480     19481     19483     19480     19481     19484     19481     19484     19485
     19481     19484     19486     19481     19484     19492     19482     19481     19483
     19482     19481     19484     19483     19481     19484     19484     19486     19487
     19484     19492     19493     19484     19492     19494     19484     19492     19495
     19485     19484     19486     19485     19484     19492     19486     19484     19492
     19486     19487     19488     19486     19487     19489     19487     19489     19490
     19487     19489     19491     19487     19489     19501     19488     19487     19489
     19489     19501     19502     19489     19501     19503     19489     19501     19504
     19490     19489     19491     19490     19489     19501     19491     19489     19501
     19492     19495     19496     19493     19492     19494     19493     19492     19495
     19494     19492     19495     19495     19496     19497     19495     19496     19498
     19496     19498     19499     19496     19498     19500     19496     19498     19548
     19497     19496     19498     19498     19548     19549     19498     19548     19550
     19498     19548     19551     19499     19498     19500     19499     19498     19548
     19500     19498     19548     19501     19504     19505     19501     19504     19506
     19501     19504     19507     19502     19501     19503     19502     19501     19504
     19503     19501     19504     19504     19507     19508     19504     19507     19509
     19505     19504     19506     19505     19504     19507     19506     19504     19507
     19507     19509     19510     19507     19509     19511     19508     19507     19509
     19509     19511     19512     19509     19511     19513     19509     19511     19514
     19510     19509     19511     19511     19514     19515     19511     19514     19516
     19512     19511     19513     19512     19511     19514     19513     19511     19514
     19514     19516     19517     19514     19516     19518     19515     19514     19516
     19516     19518     19519     19516     19518     19520     19516     19518     19521
     19517     19516     19518     19518     19521     19522     19518     19521     19523
     19519     19518     19520     19519     19518     19521     19520     19518     19521
     19521     19523     19524     19521     19523     19525     19522     19521     19523
     19523     19525     19526     19523     19525     19527     19523     19525     19528
     19524     19523     19525     19525     19528     19529     19525     19528     19530
     19526     19525     19527     19526     19525     19528     19527     19525     19528
     19528     19530     19531     19528     19530     19532     19529     19528     19530
     19530     19532     19533     19530     19532     19534     19530     19532     19535
     19531     19530     19532     19532     19535     19536     19532     19535     19537
     19532     19535     19538     19533     19532     19534     19533     19532     19535
     19534     19532     19535     19535     19538     19539     19535     19538     19540
     19535     19538     19541     19536     19535     19537     19536     19535     19538
     19537     19535     19538     19538     19541     19542     19538     19541     19543
     19538     19541     19544     19539     19538     19540     19539     19538     19541
     19540     19538     19541     19541     19544     19545     19541     19544     19546
     19541     19544     19547     19542     19541     19543     19542     19541     19544
     19543     19541     19544     19545     19544     19546     19545     19544     19547
     19546     19544     19547     19548     19551     19552     19548     19551     19553
     19548     19551     19554     19549     19548     19550     19549     19548     19551
     19550     19548     19551     19551     19554     19555     19551     19554     19556
     19551     19554     19557     19552     19551     19553     19552     19551     19554
     19553     19551     19554     19554     19557     19558     19554     19557     19559
     19554     19557     19560     19555     19554     19556     19555     19554     19557
     19556     19554     19557     19557     19560     19561     19557     19560     19562
     19557     19560     19563     19558     19557     19559     19558     19557     19560
     19559     19557     19560     19560     19563     19564     19560     19563     19565
     19560     19563     19566     19561     19560     19562     19561     19560     19563
     19562     19560     19563     19563     19566     19567     19563     19566     19568
     19563     19566     19569     19564     19563     19565     19564     19563     19566
     19565     19563     19566     19566     19569     19570     19566     19569     19571
     19566     19569     19572     19567     19566     19568     19567     19566     19569
     19568     19566     19569     19569     19572     19573     19569     19572     19574
     19569     19572     19575     19570     19569     19571     19570     19569     19572
     19571     19569     19572     19572     19575     19576     19572     19575     19577
     19572     19575     19578     19573     19572     19574     19573     19572     19575
     19574     19572     19575     19575     19578     19579     19575     19578     19580
     19575     19578     19581     19576     19575     19577     19576     19575     19578
     19577     19575     19578     19578     19581     19582     19578     19581     19583
     19578     19581     19584     19579     19578     19580     19579     19578     19581
     19580     19578     19581     19581     19584     19585     19581     19584     19586
     19581     19584     19587     19582     19581     19583     19582     19581     19584
     19583     19581     19584     19584     19587     19588     19584     19587     19589
     19584     19587     19590     19585     19584     19586     19585     19584     19587
     19586     19584     19587     19587     19590     19591     19587     19590     19592
     19587     19590     19593     19588     19587     19589     19588     19587     19590
     19589     19587     19590     19590     19593     19594     19590     19593     19595
     19590     19593     19596     19591     19590     19592     19591     19590     19593
     19592     19590     19593     19594     19593     19595     19594     19593     19596
     19595     19593     19596     19597     19598     19599     19597     19598     19600
     19597     19598     19601     19597     19602     19603     19597     19602     19604
     19597     19602     19605     19597     19606     19607     19597     19606     19608
     19597     19606     19609     19597     19610     19611     19597     19610     19612
     19597     19610     19613     19598     19597     19602     19598     19597     19606
     19598     19597     19610     19599     19598     19600     19599     19598     19601
     19600     19598     19601     19602     19597     19606     19602     19597     19610
     19603     19602     19604     19603     19602     19605     19604     19602     19605
     19606     19597     19610     19607     19606     19608     19607     19606     19609
     19608     19606     19609     19610     19613     19614     19610     19613     19615
     19610     19613     19620     19611     19610     19612     19611     19610     19613
     19612     19610     19613     19613     19620     19616     19614     19613     19615
     19614     19613     19620     19615     19613     19620     19616     19619     19621
     19617     19616     19618     19617     19616     19619     19617     19616     19620
     19618     19616     19619     19618     19616     19620     19619     19616     19620
     19619     19621     19622     19619     19621     19623     19619     19621     19626
     19621     19626     19624     19621     19626     19627     19621     19626     19628
     19622     19621     19623     19622     19621     19626     19623     19621     19626
     19624     19626     19627     19624     19626     19628     19624     19676     19677
     19624     19676     19678     19625     19624     19626     19625     19624     19676
     19626     19624     19676     19626     19628     19629     19626     19628     19630
     19626     19628     19632     19627     19626     19628     19628     19630     19631
     19628     19632     19633     19628     19632     19634     19629     19628     19630
     19629     19628     19632     19630     19628     19632     19632     19634     19635
     19632     19634     19636     19633     19632     19634     19634     19636     19637
     19634     19636     19638     19634     19636     19639     19635     19634     19636
     19636     19639     19640     19636     19639     19641     19636     19639     19642
     19637     19636     19638     19637     19636     19639     19638     19636     19639
     19639     19642     19643     19639     19642     19644     19639     19642     19645
     19640     19639     19641     19640     19639     19642     19641     19639     19642
     19642     19645     19646     19642     19645     19647     19642     19645     19648
     19643     19642     19644     19643     19642     19645     19644     19642     19645
     19645     19648     19649     19645     19648     19650     19645     19648     19651
     19646     19645     19647     19646     19645     19648     19647     19645     19648
     19648     19651     19652     19648     19651     19653     19648     19651     19654
     19649     19648     19650     19649     19648     19651     19650     19648     19651
     19651     19654     19655     19651     19654     19656     19651     19654     19657
     19652     19651     19653     19652     19651     19654     19653     19651     19654
     19654     19657     19658     19654     19657     19659     19654     19657     19660
     19655     19654     19656     19655     19654     19657     19656     19654     19657
     19657     19660     19661     19657     19660     19662     19657     19660     19663
     19658     19657     19659     19658     19657     19660     19659     19657     19660
     19660     19663     19664     19660     19663     19665     19660     19663     19666
     19661     19660     19662     19661     19660     19663     19662     19660     19663
     19663     19666     19667     19663     19666     19668     19663     19666     19669
     19664     19663     19665     19664     19663     19666     19665     19663     19666
     19666     19669     19670     19666     19669     19671     19666     19669     19672
     19667     19666     19668     19667     19666     19669     19668     19666     19669
     19669     19672     19673     19669     19672     19674     19669     19672     19675
     19670     19669     19671     19670     19669     19672     19671     19669     19672
     19673     19672     19674     19673     19672     19675     19674     19672     19675
     19676     19678     19679     19676     19678     19680     19676     19678     19681
     19677     19676     19678     19678     19681     19682     19678     19681     19683
     19678     19681     19684     19679     19678     19680     19679     19678     19681
     19680     19678     19681     19681     19684     19685     19681     19684     19686
     19681     19684     19687     19682     19681     19683     19682     19681     19684
     19683     19681     19684     19684     19687     19688     19684     19687     19689
     19684     19687     19690     19685     19684     19686     19685     19684     19687
     19686     19684     19687     19687     19690     19691     19687     19690     19692
     19687     19690     19693     19688     19687     19689     19688     19687     19690
     19689     19687     19690     19690     19693     19694     19690     19693     19695
     19690     19693     19696     19691     19690     19692     19691     19690     19693
     19692     19690     19693     19693     19696     19697     19693     19696     19698
     19693     19696     19699     19694     19693     19695     19694     19693     19696
     19695     19693     19696     19696     19699     19700     19696     19699     19701
     19697     19696     19698     19697     19696     19699     19698     19696     19699
     19699     19701     19702     19699     19701     19703     19700     19699     19701
     19701     19703     19704     19701     19703     19705     19701     19703     19706
     19702     19701     19703     19703     19706     19707     19703     19706     19708
     19703     19706     19709     19704     19703     19705     19704     19703     19706
     19705     19703     19706     19706     19709     19710     19706     19709     19711
     19706     19709     19712     19707     19706     19708     19707     19706     19709
     19708     19706     19709     19709     19712     19713     19709     19712     19714
     19709     19712     19715     19710     19709     19711     19710     19709     19712
     19711     19709     19712     19712     19715     19716     19712     19715     19717
     19712     19715     19718     19713     19712     19714     19713     19712     19715
     19714     19712     19715     19715     19718     19719     19715     19718     19720
     19715     19718     19721     19716     19715     19717     19716     19715     19718
     19717     19715     19718     19718     19721     19722     19718     19721     19723
     19718     19721     19724     19719     19718     19720     19719     19718     19721
     19720     19718     19721     19721     19724     19725     19721     19724     19726
     19721     19724     19727     19722     19721     19723     19722     19721     19724
     19723     19721     19724     19725     19724     19726     19725     19724     19727
     19726     19724     19727     19728     19729     19730     19728     19729     19731
     19728     19729     19732     19728     19733     19734     19728     19733     19735
     19728     19733     19736     19728     19737     19738     19728     19737     19739
     19728     19737     19740     19728     19741     19742     19728     19741     19743
     19728     19741     19744     19729     19728     19733     19729     19728     19737
     19729     19728     19741     19730     19729     19731     19730     19729     19732
     19731     19729     19732     19733     19728     19737     19733     19728     19741
     19734     19733     19735     19734     19733     19736     19735     19733     19736
     19737     19728     19741     19738     19737     19739     19738     19737     19740
     19739     19737     19740     19741     19744     19745     19741     19744     19746
     19741     19744     19750     19742     19741     19743     19742     19741     19744
     19743     19741     19744     19744     19750     19747     19745     19744     19746
     19745     19744     19750     19746     19744     19750     19747     19751     19752
     19748     19747     19749     19748     19747     19750     19748     19747     19751
     19749     19747     19750     19749     19747     19751     19750     19747     19751
     19751     19752     19753     19751     19752     19754     19751     19752     19755
     19752     19755     19756     19752     19755     19757     19752     19755     19763
     19753     19752     19754     19753     19752     19755     19754     19752     19755
     19755     19757     19758     19755     19763     19764     19755     19763     19765
     19755     19763     19766     19756     19755     19757     19756     19755     19763
     19757     19755     19763     19757     19758     19759     19757     19758     19760
     19758     19760     19761     19758     19760     19762     19758     19760     19772
     19759     19758     19760     19760     19772     19773     19760     19772     19774
     19760     19772     19775     19761     19760     19762     19761     19760     19772
     19762     19760     19772     19763     19766     19767     19764     19763     19765
     19764     19763     19766     19765     19763     19766     19766     19767     19768
     19766     19767     19769     19767     19769     19770     19767     19769     19771
     19767     19769     19817     19768     19767     19769     19769     19817     19818
     19769     19817     19819     19769     19817     19820     19770     19769     19771
     19770     19769     19817     19771     19769     19817     19772     19775     19776
     19772     19775     19777     19772     19775     19778     19773     19772     19774
     19773     19772     19775     19774     19772     19775     19775     19778     19779
     19775     19778     19780     19775     19778     19781     19776     19775     19777
     19776     19775     19778     19777     19775     19778     19778     19781     19782
     19778     19781     19783     19778     19781     19784     19779     19778     19780
     19779     19778     19781     19780     19778     19781     19781     19784     19785
     19781     19784     19786     19781     19784     19787     19782     19781     19783
     19782     19781     19784     19783     19781     19784     19784     19787     19788
     19784     19787     19789     19784     19787     19790     19785     19784     19786
     19785     19784     19787     19786     19784     19787     19787     19790     19791
     19787     19790     19792     19788     19787     19789     19788     19787     19790
     19789     19787     19790     19790     19792     19793     19790     19792     19794
     19791     19790     19792     19792     19794     19795     19792     19794     19796
     19792     19794     19797     19793     19792     19794     19794     19797     19798
     19794     19797     19799     19795     19794     19796     19795     19794     19797
     19796     19794     19797     19797     19799     19800     19797     19799     19801
     19798     19797     19799     19799     19801     19802     19799     19801     19803
     19799     19801     19804     19800     19799     19801     19801     19804     19805
     19801     19804     19806     19801     19804     19807     19802     19801     19803
     19802     19801     19804     19803     19801     19804     19804     19807     19808
     19804     19807     19809     19804     19807     19810     19805     19804     19806
     19805     19804     19807     19806     19804     19807     19807     19810     19811
     19807     19810     19812     19807     19810     19813     19808     19807     19809
     19808     19807     19810     19809     19807     19810     19810     19813     19814
     19810     19813     19815     19810     19813     19816     19811     19810     19812
     19811     19810     19813     19812     19810     19813     19814     19813     19815
     19814     19813     19816     19815     19813     19816     19817     19820     19821
     19817     19820     19822     19817     19820     19823     19818     19817     19819
     19818     19817     19820     19819     19817     19820     19820     19823     19824
     19820     19823     19825     19820     19823     19826     19821     19820     19822
     19821     19820     19823     19822     19820     19823     19823     19826     19827
     19823     19826     19828     19823     19826     19829     19824     19823     19825
     19824     19823     19826     19825     19823     19826     19826     19829     19830
     19826     19829     19831     19826     19829     19832     19827     19826     19828
     19827     19826     19829     19828     19826     19829     19829     19832     19833
     19829     19832     19834     19829     19832     19835     19830     19829     19831
     19830     19829     19832     19831     19829     19832     19832     19835     19836
     19832     19835     19837     19832     19835     19838     19833     19832     19834
     19833     19832     19835     19834     19832     19835     19835     19838     19839
     19835     19838     19840     19835     19838     19841     19836     19835     19837
     19836     19835     19838     19837     19835     19838     19838     19841     19842
     19838     19841     19843     19838     19841     19844     19839     19838     19840
     19839     19838     19841     19840     19838     19841     19841     19844     19845
     19841     19844     19846     19841     19844     19847     19842     19841     19843
     19842     19841     19844     19843     19841     19844     19844     19847     19848
     19844     19847     19849     19844     19847     19850     19845     19844     19846
     19845     19844     19847     19846     19844     19847     19847     19850     19851
     19847     19850     19852     19847     19850     19853     19848     19847     19849
     19848     19847     19850     19849     19847     19850     19850     19853     19854
     19850     19853     19855     19850     19853     19856     19851     19850     19852
     19851     19850     19853     19852     19850     19853     19853     19856     19857
     19853     19856     19858     19853     19856     19859     19854     19853     19855
     19854     19853     19856     19855     19853     19856     19856     19859     19860
     19856     19859     19861     19856     19859     19862     19857     19856     19858
     19857     19856     19859     19858     19856     19859     19859     19862     19863
     19859     19862     19864     19859     19862     19865     19860     19859     19861
     19860     19859     19862     19861     19859     19862     19863     19862     19864
     19863     19862     19865     19864     19862     19865     19866     19870     19871
     19866     19870     19872     19866     19870     19873     19867     19866     19868
     19867     19866     19869     19867     19866     19870     19868     19866     19869
     19868     19866     19870     19869     19866     19870     19870     19873     19874
     19870     19873     19875     19870     19873     19879     19871     19870     19872
     19871     19870     19873     19872     19870     19873     19873     19879     19876
     19874     19873     19875     19874     19873     19879     19875     19873     19879
     19876     19880     19881     19877     19876     19878     19877     19876     19879
     19877     19876     19880     19878     19876     19879     19878     19876     19880
     19879     19876     19880     19880     19881     19882     19880     19881     19883
     19880     19881     19884     19881     19884     19885     19881     19884     19886
     19881     19884     19892     19882     19881     19883     19882     19881     19884
     19883     19881     19884     19884     19886     19887     19884     19892     19893
     19884     19892     19894     19884     19892     19895     19885     19884     19886
     19885     19884     19892     19886     19884     19892     19886     19887     19888
     19886     19887     19889     19887     19889     19890     19887     19889     19891
     19887     19889     19901     19888     19887     19889     19889     19901     19902
     19889     19901     19903     19889     19901     19904     19890     19889     19891
     19890     19889     19901     19891     19889     19901     19892     19895     19896
     19893     19892     19894     19893     19892     19895     19894     19892     19895
     19895     19896     19897     19895     19896     19898     19896     19898     19899
     19896     19898     19900     19896     19898     19948     19897     19896     19898
     19898     19948     19949     19898     19948     19950     19898     19948     19951
     19899     19898     19900     19899     19898     19948     19900     19898     19948
     19901     19904     19905     19901     19904     19906     19901     19904     19907
     19902     19901     19903     19902     19901     19904     19903     19901     19904
     19904     19907     19908     19904     19907     19909     19904     19907     19910
     19905     19904     19906     19905     19904     19907     19906     19904     19907
     19907     19910     19911     19907     19910     19912     19907     19910     19913
     19908     19907     19909     19908     19907     19910     19909     19907     19910
     19910     19913     19914     19910     19913     19915     19910     19913     19916
     19911     19910     19912     19911     19910     19913     19912     19910     19913
     19913     19916     19917     19913     19916     19918     19913     19916     19919
     19914     19913     19915     19914     19913     19916     19915     19913     19916
     19916     19919     19920     19916     19919     19921     19917     19916     19918
     19917     19916     19919     19918     19916     19919     19919     19921     19922
     19919     19921     19923     19920     19919     19921     19921     19923     19924
     19921     19923     19925     19921     19923     19926     19922     19921     19923
     19923     19926     19927     19923     19926     19928     19923     19926     19929
     19924     19923     19925     19924     19923     19926     19925     19923     19926
     19926     19929     19930     19926     19929     19931     19926     19929     19932
     19927     19926     19928     19927     19926     19929     19928     19926     19929
     19929     19932     19933     19929     19932     19934     19929     19932     19935
     19930     19929     19931     19930     19929     19932     19931     19929     19932
     19932     19935     19936     19932     19935     19937     19932     19935     19938
     19933     19932     19934     19933     19932     19935     19934     19932     19935
     19935     19938     19939     19935     19938     19940     19935     19938     19941
     19936     19935     19937     19936     19935     19938     19937     19935     19938
     19938     19941     19942     19938     19941     19943     19938     19941     19944
     19939     19938     19940     19939     19938     19941     19940     19938     19941
     19941     19944     19945     19941     19944     19946     19941     19944     19947
     19942     19941     19943     19942     19941     19944     19943     19941     19944
     19945     19944     19946     19945     19944     19947     19946     19944     19947
     19948     19951     19952     19948     19951     19953     19948     19951     19954
     19949     19948     19950     19949     19948     19951     19950     19948     19951
     19951     19954     19955     19951     19954     19956     19951     19954     19957
     19952     19951     19953     19952     19951     19954     19953     19951     19954
     19954     19957     19958     19954     19957     19959     19954     19957     19960
     19955     19954     19956     19955     19954     19957     19956     19954     19957
     19957     19960     19961     19957     19960     19962     19957     19960     19963
     19958     19957     19959     19958     19957     19960     19959     19957     19960
     19960     19963     19964     19960     19963     19965     19960     19963     19966
     19961     19960     19962     19961     19960     19963     19962     19960     19963
     19963     19966     19967     19963     19966     19968     19963     19966     19969
     19964     19963     19965     19964     19963     19966     19965     19963     19966
     19966     19969     19970     19966     19969     19971     19966     19969     19972
     19967     19966     19968     19967     19966     19969     19968     19966     19969
     19969     19972     19973     19969     19972     19974     19969     19972     19975
     19970     19969     19971     19970     19969     19972     19971     19969     19972
     19972     19975     19976     19972     19975     19977     19972     19975     19978
     19973     19972     19974     19973     19972     19975     19974     19972     19975
     19975     19978     19979     19975     19978     19980     19975     19978     19981
     19976     19975     19977     19976     19975     19978     19977     19975     19978
     19978     19981     19982     19978     19981     19983     19978     19981     19984
     19979     19978     19980     19979     19978     19981     19980     19978     19981
     19981     19984     19985     19981     19984     19986     19981     19984     19987
     19982     19981     19983     19982     19981     19984     19983     19981     19984
     19984     19987     19988     19984     19987     19989     19984     19987     19990
     19985     19984     19986     19985     19984     19987     19986     19984     19987
     19987     19990     19991     19987     19990     19992     19987     19990     19993
     19988     19987     19989     19988     19987     19990     19989     19987     19990
     19990     19993     19994     19990     19993     19995     19990     19993     19996
     19991     19990     19992     19991     19990     19993     19992     19990     19993
     19994     19993     19995     19994     19993     19996     19995     19993     19996
     19997     20001     20002     19997     20001     20003     19997     20001     20004
     19998     19997     19999     19998     19997     20000     19998     19997     20001
     19999     19997     20000     19999     19997     20001     20000     19997     20001
     20001     20004     20005     20001     20004     20006     20001     20004     20010
     20002     20001     20003     20002     20001     20004     20003     20001     20004
     20004     20010     20007     20005     20004     20006     20005     20004     20010
     20006     20004     20010     20007     20011     20012     20008     20007     20009
     20008     20007     20010     20008     20007     20011     20009     20007     20010
     20009     20007     20011     20010     20007     20011     20011     20012     20013
     20011     20012     20014     20011     20012     20015     20012     20015     20016
     20012     20015     20017     20012     20015     20023     20013     20012     20014
     20013     20012     20015     20014     20012     20015     20015     20017     20018
     20015     20023     20024     20015     20023     20025     20015     20023     20026
     20016     20015     20017     20016     20015     20023     20017     20015     20023
     20017     20018     20019     20017     20018     20020     20018     20020     20021
     20018     20020     20022     20018     20020     20032     20019     20018     20020
     20020     20032     20033     20020     20032     20034     20020     20032     20035
     20021     20020     20022     20021     20020     20032     20022     20020     20032
     20023     20026     20027     20024     20023     20025     20024     20023     20026
     20025     20023     20026     20026     20027     20028     20026     20027     20029
     20027     20029     20030     20027     20029     20031     20027     20029     20079
     20028     20027     20029     20029     20079     20080     20029     20079     20081
     20029     20079     20082     20030     20029     20031     20030     20029     20079
     20031     20029     20079     20032     20035     20036     20032     20035     20037
     20032     20035     20038     20033     20032     20034     20033     20032     20035
     20034     20032     20035     20035     20038     20039     20035     20038     20040
     20036     20035     20037     20036     20035     20038     20037     20035     20038
     20038     20040     20041     20038     20040     20042     20039     20038     20040
     20040     20042     20043     20040     20042     20044     20040     20042     20045
     20041     20040     20042     20042     20045     20046     20042     20045     20047
     20043     20042     20044     20043     20042     20045     20044     20042     20045
     20045     20047     20048     20045     20047     20049     20046     20045     20047
     20047     20049     20050     20047     20049     20051     20047     20049     20052
     20048     20047     20049     20049     20052     20053     20049     20052     20054
     20050     20049     20051     20050     20049     20052     20051     20049     20052
     20052     20054     20055     20052     20054     20056     20053     20052     20054
     20054     20056     20057     20054     20056     20058     20054     20056     20059
     20055     20054     20056     20056     20059     20060     20056     20059     20061
     20057     20056     20058     20057     20056     20059     20058     20056     20059
     20059     20061     20062     20059     20061     20063     20060     20059     20061
     20061     20063     20064     20061     20063     20065     20061     20063     20066
     20062     20061     20063     20063     20066     20067     20063     20066     20068
     20063     20066     20069     20064     20063     20065     20064     20063     20066
     20065     20063     20066     20066     20069     20070     20066     20069     20071
     20066     20069     20072     20067     20066     20068     20067     20066     20069
     20068     20066     20069     20069     20072     20073     20069     20072     20074
     20069     20072     20075     20070     20069     20071     20070     20069     20072
     20071     20069     20072     20072     20075     20076     20072     20075     20077
     20072     20075     20078     20073     20072     20074     20073     20072     20075
     20074     20072     20075     20076     20075     20077     20076     20075     20078
     20077     20075     20078     20079     20082     20083     20079     20082     20084
     20079     20082     20085     20080     20079     20081     20080     20079     20082
     20081     20079     20082     20082     20085     20086     20082     20085     20087
     20082     20085     20088     20083     20082     20084     20083     20082     20085
     20084     20082     20085     20085     20088     20089     20085     20088     20090
     20085     20088     20091     20086     20085     20087     20086     20085     20088
     20087     20085     20088     20088     20091     20092     20088     20091     20093
     20088     20091     20094     20089     20088     20090     20089     20088     20091
     20090     20088     20091     20091     20094     20095     20091     20094     20096
     20091     20094     20097     20092     20091     20093     20092     20091     20094
     20093     20091     20094     20094     20097     20098     20094     20097     20099
     20094     20097     20100     20095     20094     20096     20095     20094     20097
     20096     20094     20097     20097     20100     20101     20097     20100     20102
     20097     20100     20103     20098     20097     20099     20098     20097     20100
     20099     20097     20100     20100     20103     20104     20100     20103     20105
     20100     20103     20106     20101     20100     20102     20101     20100     20103
     20102     20100     20103     20103     20106     20107     20103     20106     20108
     20103     20106     20109     20104     20103     20105     20104     20103     20106
     20105     20103     20106     20106     20109     20110     20106     20109     20111
     20106     20109     20112     20107     20106     20108     20107     20106     20109
     20108     20106     20109     20109     20112     20113     20109     20112     20114
     20109     20112     20115     20110     20109     20111     20110     20109     20112
     20111     20109     20112     20112     20115     20116     20112     20115     20117
     20112     20115     20118     20113     20112     20114     20113     20112     20115
     20114     20112     20115     20115     20118     20119     20115     20118     20120
     20115     20118     20121     20116     20115     20117     20116     20115     20118
     20117     20115     20118     20118     20121     20122     20118     20121     20123
     20118     20121     20124     20119     20118     20120     20119     20118     20121
     20120     20118     20121     20121     20124     20125     20121     20124     20126
     20121     20124     20127     20122     20121     20123     20122     20121     20124
     20123     20121     20124     20125     20124     20126     20125     20124     20127
     20126     20124     20127     20128     20132     20133     20128     20132     20134
     20128     20132     20137     20129     20128     20130     20129     20128     20131
     20129     20128     20132     20130     20128     20131     20130     20128     20132
     20131     20128     20132     20132     20134     20135     20132     20134     20136
     20132     20137     20138     20132     20137     20139     20132     20137     20143
     20133     20132     20134     20133     20132     20137     20134     20132     20137
     20135     20134     20136     20137     20143     20140     20138     20137     20139
     20138     20137     20143     20139     20137     20143     20140     20144     20145
     20141     20140     20142     20141     20140     20143     20141     20140     20144
     20142     20140     20143     20142     20140     20144     20143     20140     20144
     20144     20145     20146     20144     20145     20147     20144     20145     20148
     20145     20148     20149     20145     20148     20150     20145     20148     20156
     20146     20145     20147     20146     20145     20148     20147     20145     20148
     20148     20150     20151     20148     20156     20157     20148     20156     20158
     20148     20156     20159     20149     20148     20150     20149     20148     20156
     20150     20148     20156     20150     20151     20152     20150     20151     20153
     20151     20153     20154     20151     20153     20155     20151     20153     20165
     20152     20151     20153     20153     20165     20166     20153     20165     20167
     20153     20165     20168     20154     20153     20155     20154     20153     20165
     20155     20153     20165     20156     20159     20160     20157     20156     20158
     20157     20156     20159     20158     20156     20159     20159     20160     20161
     20159     20160     20162     20160     20162     20163     20160     20162     20164
     20160     20162     20212     20161     20160     20162     20162     20212     20213
     20162     20212     20214     20162     20212     20215     20163     20162     20164
     20163     20162     20212     20164     20162     20212     20165     20168     20169
     20165     20168     20170     20165     20168     20171     20166     20165     20167
     20166     20165     20168     20167     20165     20168     20168     20171     20172
     20168     20171     20173     20169     20168     20170     20169     20168     20171
     20170     20168     20171     20171     20173     20174     20171     20173     20175
     20172     20171     20173     20173     20175     20176     20173     20175     20177
     20173     20175     20178     20174     20173     20175     20175     20178     20179
     20175     20178     20180     20176     20175     20177     20176     20175     20178
     20177     20175     20178     20178     20180     20181     20178     20180     20182
     20179     20178     20180     20180     20182     20183     20180     20182     20184
     20180     20182     20185     20181     20180     20182     20182     20185     20186
     20182     20185     20187     20183     20182     20184     20183     20182     20185
     20184     20182     20185     20185     20187     20188     20185     20187     20189
     20186     20185     20187     20187     20189     20190     20187     20189     20191
     20187     20189     20192     20188     20187     20189     20189     20192     20193
     20189     20192     20194     20190     20189     20191     20190     20189     20192
     20191     20189     20192     20192     20194     20195     20192     20194     20196
     20193     20192     20194     20194     20196     20197     20194     20196     20198
     20194     20196     20199     20195     20194     20196     20196     20199     20200
     20196     20199     20201     20196     20199     20202     20197     20196     20198
     20197     20196     20199     20198     20196     20199     20199     20202     20203
     20199     20202     20204     20199     20202     20205     20200     20199     20201
     20200     20199     20202     20201     20199     20202     20202     20205     20206
     20202     20205     20207     20202     20205     20208     20203     20202     20204
     20203     20202     20205     20204     20202     20205     20205     20208     20209
     20205     20208     20210     20205     20208     20211     20206     20205     20207
     20206     20205     20208     20207     20205     20208     20209     20208     20210
     20209     20208     20211     20210     20208     20211     20212     20215     20216
     20212     20215     20217     20212     20215     20218     20213     20212     20214
     20213     20212     20215     20214     20212     20215     20215     20218     20219
     20215     20218     20220     20215     20218     20221     20216     20215     20217
     20216     20215     20218     20217     20215     20218     20218     20221     20222
     20218     20221     20223     20218     20221     20224     20219     20218     20220
     20219     20218     20221     20220     20218     20221     20221     20224     20225
     20221     20224     20226     20221     20224     20227     20222     20221     20223
     20222     20221     20224     20223     20221     20224     20224     20227     20228
     20224     20227     20229     20224     20227     20230     20225     20224     20226
     20225     20224     20227     20226     20224     20227     20227     20230     20231
     20227     20230     20232     20227     20230     20233     20228     20227     20229
     20228     20227     20230     20229     20227     20230     20230     20233     20234
     20230     20233     20235     20230     20233     20236     20231     20230     20232
     20231     20230     20233     20232     20230     20233     20233     20236     20237
     20233     20236     20238     20233     20236     20239     20234     20233     20235
     20234     20233     20236     20235     20233     20236     20236     20239     20240
     20236     20239     20241     20236     20239     20242     20237     20236     20238
     20237     20236     20239     20238     20236     20239     20239     20242     20243
     20239     20242     20244     20239     20242     20245     20240     20239     20241
     20240     20239     20242     20241     20239     20242     20242     20245     20246
     20242     20245     20247     20242     20245     20248     20243     20242     20244
     20243     20242     20245     20244     20242     20245     20245     20248     20249
     20245     20248     20250     20245     20248     20251     20246     20245     20247
     20246     20245     20248     20247     20245     20248     20248     20251     20252
     20248     20251     20253     20248     20251     20254     20249     20248     20250
     20249     20248     20251     20250     20248     20251     20251     20254     20255
     20251     20254     20256     20251     20254     20257     20252     20251     20253
     20252     20251     20254     20253     20251     20254     20254     20257     20258
     20254     20257     20259     20254     20257     20260     20255     20254     20256
     20255     20254     20257     20256     20254     20257     20258     20257     20259
     20258     20257     20260     20259     20257     20260     20261     20262     20263
     20261     20262     20264     20261     20262     20265     20261     20266     20267
     20261     20266     20268     20261     20266     20269     20261     20270     20271
     20261     20270     20272     20261     20270     20273     20261     20274     20275
     20261     20274     20276     20261     20274     20277     20262     20261     20266
     20262     20261     20270     20262     20261     20274     20263     20262     20264
     20263     20262     20265     20264     20262     20265     20266     20261     20270
     20266     20261     20274     20267     20266     20268     20267     20266     20269
     20268     20266     20269     20270     20261     20274     20271     20270     20272
     20271     20270     20273     20272     20270     20273     20274     20277     20278
     20274     20277     20279     20274     20277     20284     20275     20274     20276
     20275     20274     20277     20276     20274     20277     20277     20284     20280
     20278     20277     20279     20278     20277     20284     20279     20277     20284
     20280     20283     20285     20281     20280     20282     20281     20280     20283
     20281     20280     20284     20282     20280     20283     20282     20280     20284
     20283     20280     20284     20283     20285     20286     20283     20285     20287
     20283     20285     20290     20285     20290     20288     20285     20290     20291
     20285     20290     20292     20286     20285     20287     20286     20285     20290
     20287     20285     20290     20288     20290     20291     20288     20290     20292
     20288     20340     20341     20288     20340     20342     20289     20288     20290
     20289     20288     20340     20290     20288     20340     20290     20292     20293
     20290     20292     20294     20290     20292     20296     20291     20290     20292
     20292     20294     20295     20292     20296     20297     20292     20296     20298
     20293     20292     20294     20293     20292     20296     20294     20292     20296
     20296     20298     20299     20296     20298     20300     20297     20296     20298
     20298     20300     20301     20298     20300     20302     20298     20300     20303
     20299     20298     20300     20300     20303     20304     20300     20303     20305
     20300     20303     20306     20301     20300     20302     20301     20300     20303
     20302     20300     20303     20303     20306     20307     20303     20306     20308
     20303     20306     20309     20304     20303     20305     20304     20303     20306
     20305     20303     20306     20306     20309     20310     20306     20309     20311
     20306     20309     20312     20307     20306     20308     20307     20306     20309
     20308     20306     20309     20309     20312     20313     20309     20312     20314
     20309     20312     20315     20310     20309     20311     20310     20309     20312
     20311     20309     20312     20312     20315     20316     20312     20315     20317
     20312     20315     20318     20313     20312     20314     20313     20312     20315
     20314     20312     20315     20315     20318     20319     20315     20318     20320
     20315     20318     20321     20316     20315     20317     20316     20315     20318
     20317     20315     20318     20318     20321     20322     20318     20321     20323
     20318     20321     20324     20319     20318     20320     20319     20318     20321
     20320     20318     20321     20321     20324     20325     20321     20324     20326
     20321     20324     20327     20322     20321     20323     20322     20321     20324
     20323     20321     20324     20324     20327     20328     20324     20327     20329
     20324     20327     20330     20325     20324     20326     20325     20324     20327
     20326     20324     20327     20327     20330     20331     20327     20330     20332
     20327     20330     20333     20328     20327     20329     20328     20327     20330
     20329     20327     20330     20330     20333     20334     20330     20333     20335
     20330     20333     20336     20331     20330     20332     20331     20330     20333
     20332     20330     20333     20333     20336     20337     20333     20336     20338
     20333     20336     20339     20334     20333     20335     20334     20333     20336
     20335     20333     20336     20337     20336     20338     20337     20336     20339
     20338     20336     20339     20340     20342     20343     20340     20342     20344
     20340     20342     20345     20341     20340     20342     20342     20345     20346
     20342     20345     20347     20342     20345     20348     20343     20342     20344
     20343     20342     20345     20344     20342     20345     20345     20348     20349
     20345     20348     20350     20345     20348     20351     20346     20345     20347
     20346     20345     20348     20347     20345     20348     20348     20351     20352
     20348     20351     20353     20348     20351     20354     20349     20348     20350
     20349     20348     20351     20350     20348     20351     20351     20354     20355
     20351     20354     20356     20351     20354     20357     20352     20351     20353
     20352     20351     20354     20353     20351     20354     20354     20357     20358
     20354     20357     20359     20354     20357     20360     20355     20354     20356
     20355     20354     20357     20356     20354     20357     20357     20360     20361
     20357     20360     20362     20357     20360     20363     20358     20357     20359
     20358     20357     20360     20359     20357     20360     20360     20363     20364
     20360     20363     20365     20361     20360     20362     20361     20360     20363
     20362     20360     20363     20363     20365     20366     20363     20365     20367
     20364     20363     20365     20365     20367     20368     20365     20367     20369
     20365     20367     20370     20366     20365     20367     20367     20370     20371
     20367     20370     20372     20367     20370     20373     20368     20367     20369
     20368     20367     20370     20369     20367     20370     20370     20373     20374
     20370     20373     20375     20370     20373     20376     20371     20370     20372
     20371     20370     20373     20372     20370     20373     20373     20376     20377
     20373     20376     20378     20373     20376     20379     20374     20373     20375
     20374     20373     20376     20375     20373     20376     20376     20379     20380
     20376     20379     20381     20376     20379     20382     20377     20376     20378
     20377     20376     20379     20378     20376     20379     20379     20382     20383
     20379     20382     20384     20379     20382     20385     20380     20379     20381
     20380     20379     20382     20381     20379     20382     20382     20385     20386
     20382     20385     20387     20382     20385     20388     20383     20382     20384
     20383     20382     20385     20384     20382     20385     20385     20388     20389
     20385     20388     20390     20385     20388     20391     20386     20385     20387
     20386     20385     20388     20387     20385     20388     20389     20388     20390
     20389     20388     20391     20390     20388     20391     20392     20393     20394
     20392     20393     20395     20392     20393     20396     20392     20397     20398
     20392     20397     20399     20392     20397     20400     20392     20401     20402
     20392     20401     20403     20392     20401     20404     20392     20405     20406
     20392     20405     20407     20392     20405     20408     20393     20392     20397
     20393     20392     20401     20393     20392     20405     20394     20393     20395
     20394     20393     20396     20395     20393     20396     20397     20392     20401
     20397     20392     20405     20398     20397     20399     20398     20397     20400
     20399     20397     20400     20401     20392     20405     20402     20401     20403
     20402     20401     20404     20403     20401     20404     20405     20408     20409
     20405     20408     20410     20405     20408     20414     20406     20405     20407
     20406     20405     20408     20407     20405     20408     20408     20414     20411
     20409     20408     20410     20409     20408     20414     20410     20408     20414
     20411     20415     20416     20412     20411     20413     20412     20411     20414
     20412     20411     20415     20413     20411     20414     20413     20411     20415
     20414     20411     20415     20415     20416     20417     20415     20416     20418
     20415     20416     20419     20416     20419     20420     20416     20419     20421
     20416     20419     20427     20417     20416     20418     20417     20416     20419
     20418     20416     20419     20419     20421     20422     20419     20427     20428
     20419     20427     20429     20419     20427     20430     20420     20419     20421
     20420     20419     20427     20421     20419     20427     20421     20422     20423
     20421     20422     20424     20422     20424     20425     20422     20424     20426
     20422     20424     20436     20423     20422     20424     20424     20436     20437
     20424     20436     20438     20424     20436     20439     20425     20424     20426
     20425     20424     20436     20426     20424     20436     20427     20430     20431
     20428     20427     20429     20428     20427     20430     20429     20427     20430
     20430     20431     20432     20430     20431     20433     20431     20433     20434
     20431     20433     20435     20431     20433     20481     20432     20431     20433
     20433     20481     20482     20433     20481     20483     20433     20481     20484
     20434     20433     20435     20434     20433     20481     20435     20433     20481
     20436     20439     20440     20436     20439     20441     20436     20439     20442
     20437     20436     20438     20437     20436     20439     20438     20436     20439
     20439     20442     20443     20439     20442     20444     20439     20442     20445
     20440     20439     20441     20440     20439     20442     20441     20439     20442
     20442     20445     20446     20442     20445     20447     20442     20445     20448
     20443     20442     20444     20443     20442     20445     20444     20442     20445
     20445     20448     20449     20445     20448     20450     20445     20448     20451
     20446     20445     20447     20446     20445     20448     20447     20445     20448
     20448     20451     20452     20448     20451     20453     20448     20451     20454
     20449     20448     20450     20449     20448     20451     20450     20448     20451
     20451     20454     20455     20451     20454     20456     20452     20451     20453
     20452     20451     20454     20453     20451     20454     20454     20456     20457
     20454     20456     20458     20455     20454     20456     20456     20458     20459
     20456     20458     20460     20456     20458     20461     20457     20456     20458
     20458     20461     20462     20458     20461     20463     20459     20458     20460
     20459     20458     20461     20460     20458     20461     20461     20463     20464
     20461     20463     20465     20462     20461     20463     20463     20465     20466
     20463     20465     20467     20463     20465     20468     20464     20463     20465
     20465     20468     20469     20465     20468     20470     20465     20468     20471
     20466     20465     20467     20466     20465     20468     20467     20465     20468
     20468     20471     20472     20468     20471     20473     20468     20471     20474
     20469     20468     20470     20469     20468     20471     20470     20468     20471
     20471     20474     20475     20471     20474     20476     20471     20474     20477
     20472     20471     20473     20472     20471     20474     20473     20471     20474
     20474     20477     20478     20474     20477     20479     20474     20477     20480
     20475     20474     20476     20475     20474     20477     20476     20474     20477
     20478     20477     20479     20478     20477     20480     20479     20477     20480
     20481     20484     20485     20481     20484     20486     20481     20484     20487
     20482     20481     20483     20482     20481     20484     20483     20481     20484
     20484     20487     20488     20484     20487     20489     20484     20487     20490
     20485     20484     20486     20485     20484     20487     20486     20484     20487
     20487     20490     20491     20487     20490     20492     20487     20490     20493
     20488     20487     20489     20488     20487     20490     20489     20487     20490
     20490     20493     20494     20490     20493     20495     20490     20493     20496
     20491     20490     20492     20491     20490     20493     20492     20490     20493
     20493     20496     20497     20493     20496     20498     20493     20496     20499
     20494     20493     20495     20494     20493     20496     20495     20493     20496
     20496     20499     20500     20496     20499     20501     20496     20499     20502
     20497     20496     20498     20497     20496     20499     20498     20496     20499
     20499     20502     20503     20499     20502     20504     20499     20502     20505
     20500     20499     20501     20500     20499     20502     20501     20499     20502
     20502     20505     20506     20502     20505     20507     20502     20505     20508
     20503     20502     20504     20503     20502     20505     20504     20502     20505
     20505     20508     20509     20505     20508     20510     20505     20508     20511
     20506     20505     20507     20506     20505     20508     20507     20505     20508
     20508     20511     20512     20508     20511     20513     20508     20511     20514
     20509     20508     20510     20509     20508     20511     20510     20508     20511
     20511     20514     20515     20511     20514     20516     20511     20514     20517
     20512     20511     20513     20512     20511     20514     20513     20511     20514
     20514     20517     20518     20514     20517     20519     20514     20517     20520
     20515     20514     20516     20515     20514     20517     20516     20514     20517
     20517     20520     20521     20517     20520     20522     20517     20520     20523
     20518     20517     20519     20518     20517     20520     20519     20517     20520
     20520     20523     20524     20520     20523     20525     20520     20523     20526
     20521     20520     20522     20521     20520     20523     20522     20520     20523
     20523     20526     20527     20523     20526     20528     20523     20526     20529
     20524     20523     20525     20524     20523     20526     20525     20523     20526
     20527     20526     20528     20527     20526     20529     20528     20526     20529
     20530     20532     20533     20530     20534     20535     20530     20534     20536
     20530     20534     20537     20530     20576     20573     20530     20576     20577
     20530     20576     20578     20531     20530     20532     20531     20530     20534
     20531     20530     20576     20532     20530     20534     20532     20530     20576
     20534     20530     20576     20534     20537     20538     20534     20537     20568
     20535     20534     20536     20535     20534     20537     20536     20534     20537
     20537     20538     20539     20537     20538     20540     20537     20568     20566
     20537     20568     20569     20537     20568     20573     20538     20537     20568
     20538     20540     20541     20538     20540     20542     20538     20540     20543
     20539     20538     20540     20540     20543     20544     20540     20543     20545
     20540     20543     20566     20541     20540     20542     20541     20540     20543
     20542     20540     20543     20543     20545     20546     20543     20545     20547
     20543     20545     20555     20543     20566     20563     20543     20566     20567
     20543     20566     20568     20544     20543     20545     20544     20543     20566
     20545     20543     20566     20545     20547     20548     20545     20547     20549
     20545     20547     20550     20545     20555     20553     20545     20555     20556
     20545     20555     20560     20546     20545     20547     20546     20545     20555
     20547     20545     20555     20547     20550     20551     20547     20550     20552
     20547     20550     20553     20548     20547     20549     20548     20547     20550
     20549     20547     20550     20550     20553     20554     20550     20553     20555
     20550     20553     20579     20551     20550     20552     20551     20550     20553
     20552     20550     20553     20553     20555     20556     20553     20555     20560
     20553     20579     20580     20553     20579     20581     20553     20579     20585
     20554     20553     20555     20554     20553     20579     20555     20553     20579
     20555     20556     20557     20555     20556     20558     20555     20556     20559
     20555     20560     20561     20555     20560     20562     20555     20560     20563
     20556     20555     20560     20557     20556     20558     20557     20556     20559
     20558     20556     20559     20560     20563     20564     20560     20563     20565
     20560     20563     20566     20561     20560     20562     20561     20560     20563
     20562     20560     20563     20563     20566     20567     20563     20566     20568
     20564     20563     20565     20564     20563     20566     20565     20563     20566
     20566     20568     20569     20566     20568     20573     20567     20566     20568
     20568     20569     20570     20568     20569     20571     20568     20569     20572
     20568     20573     20574     20568     20573     20575     20568     20573     20576
     20569     20568     20573     20570     20569     20571     20570     20569     20572
     20571     20569     20572     20573     20576     20577     20573     20576     20578
     20574     20573     20575     20574     20573     20576     20575     20573     20576
     20577     20576     20578     20579     20581     20582     20579     20581     20583
     20579     20581     20584     20579     20585     20586     20579     20585     20587
     20579     20585     20588     20580     20579     20581     20580     20579     20585
     20581     20579     20585     20582     20581     20583     20582     20581     20584
     20583     20581     20584     20585     20588     20589     20585     20588     20590
     20585     20588     20591     20586     20585     20587     20586     20585     20588
     20587     20585     20588     20588     20591     20592     20588     20591     20593
     20588     20591     20594     20589     20588     20590     20589     20588     20591
     20590     20588     20591     20591     20594     20595     20591     20594     20596
     20591     20594     20600     20592     20591     20593     20592     20591     20594
     20593     20591     20594     20594     20596     20597     20594     20596     20598
     20594     20596     20599     20594     20600     20601     20594     20600     20602
     20594     20600     20603     20595     20594     20596     20595     20594     20600
     20596     20594     20600     20597     20596     20598     20597     20596     20599
     20598     20596     20599     20601     20600     20602     20601     20600     20603
     20602     20600     20603     20604     20606     20607     20604     20608     20609
     20604     20608     20610     20604     20608     20611     20604     20650     20647
     20604     20650     20651     20604     20650     20652     20605     20604     20606
     20605     20604     20608     20605     20604     20650     20606     20604     20608
     20606     20604     20650     20608     20604     20650     20608     20611     20612
     20608     20611     20642     20609     20608     20610     20609     20608     20611
     20610     20608     20611     20611     20612     20613     20611     20612     20614
     20611     20642     20640     20611     20642     20643     20611     20642     20647
     20612     20611     20642     20612     20614     20615     20612     20614     20616
     20612     20614     20617     20613     20612     20614     20614     20617     20618
     20614     20617     20619     20614     20617     20640     20615     20614     20616
     20615     20614     20617     20616     20614     20617     20617     20619     20620
     20617     20619     20621     20617     20619     20629     20617     20640     20637
     20617     20640     20641     20617     20640     20642     20618     20617     20619
     20618     20617     20640     20619     20617     20640     20619     20621     20622
     20619     20621     20623     20619     20621     20624     20619     20629     20627
     20619     20629     20630     20619     20629     20634     20620     20619     20621
     20620     20619     20629     20621     20619     20629     20621     20624     20625
     20621     20624     20626     20621     20624     20627     20622     20621     20623
     20622     20621     20624     20623     20621     20624     20624     20627     20628
     20624     20627     20629     20624     20627     20653     20625     20624     20626
     20625     20624     20627     20626     20624     20627     20627     20629     20630
     20627     20629     20634     20627     20653     20654     20627     20653     20655
     20627     20653     20659     20628     20627     20629     20628     20627     20653
     20629     20627     20653     20629     20630     20631     20629     20630     20632
     20629     20630     20633     20629     20634     20635     20629     20634     20636
     20629     20634     20637     20630     20629     20634     20631     20630     20632
     20631     20630     20633     20632     20630     20633     20634     20637     20638
     20634     20637     20639     20634     20637     20640     20635     20634     20636
     20635     20634     20637     20636     20634     20637     20637     20640     20641
     20637     20640     20642     20638     20637     20639     20638     20637     20640
     20639     20637     20640     20640     20642     20643     20640     20642     20647
     20641     20640     20642     20642     20643     20644     20642     20643     20645
     20642     20643     20646     20642     20647     20648     20642     20647     20649
     20642     20647     20650     20643     20642     20647     20644     20643     20645
     20644     20643     20646     20645     20643     20646     20647     20650     20651
     20647     20650     20652     20648     20647     20649     20648     20647     20650
     20649     20647     20650     20651     20650     20652     20653     20655     20656
     20653     20655     20657     20653     20655     20658     20653     20659     20660
     20653     20659     20661     20653     20659     20662     20654     20653     20655
     20654     20653     20659     20655     20653     20659     20656     20655     20657
     20656     20655     20658     20657     20655     20658     20659     20662     20663
     20659     20662     20664     20659     20662     20665     20660     20659     20661
     20660     20659     20662     20661     20659     20662     20662     20665     20666
     20662     20665     20667     20662     20665     20668     20663     20662     20664
     20663     20662     20665     20664     20662     20665     20665     20668     20669
     20665     20668     20670     20665     20668     20674     20666     20665     20667
     20666     20665     20668     20667     20665     20668     20668     20670     20671
     20668     20670     20672     20668     20670     20673     20668     20674     20675
     20668     20674     20676     20668     20674     20677     20669     20668     20670
     20669     20668     20674     20670     20668     20674     20671     20670     20672
     20671     20670     20673     20672     20670     20673     20675     20674     20676
     20675     20674     20677     20676     20674     20677     20678     20679     20680
     20678     20679     20681     20678     20679     20694     20678     20682     20683
     20678     20682     20684     20678     20682     20685     20678     20686     20687
     20678     20686     20688     20678     20686     20689     20678     20690     20691
     20678     20690     20692     20678     20690     20693     20679     20678     20682
     20679     20678     20686     20679     20678     20690     20679     20694     20695
     20679     20694     20696     20679     20694     20700     20680     20679     20681
     20680     20679     20694     20681     20679     20694     20682     20678     20686
     20682     20678     20690     20683     20682     20684     20683     20682     20685
     20684     20682     20685     20686     20678     20690     20687     20686     20688
     20687     20686     20689     20688     20686     20689     20691     20690     20692
     20691     20690     20693     20692     20690     20693     20694     20700     20697
     20695     20694     20696     20695     20694     20700     20696     20694     20700
     20697     20701     20702     20698     20697     20699     20698     20697     20700
     20698     20697     20701     20699     20697     20700     20699     20697     20701
     20700     20697     20701     20701     20702     20703     20701     20702     20704
     20701     20702     20705     20702     20705     20706     20702     20705     20707
     20702     20705     20713     20703     20702     20704     20703     20702     20705
     20704     20702     20705     20705     20707     20708     20705     20713     20714
     20705     20713     20715     20705     20713     20716     20706     20705     20707
     20706     20705     20713     20707     20705     20713     20707     20708     20709
     20707     20708     20710     20708     20710     20711     20708     20710     20712
     20708     20710     20722     20709     20708     20710     20710     20722     20723
     20710     20722     20724     20710     20722     20725     20711     20710     20712
     20711     20710     20722     20712     20710     20722     20713     20716     20717
     20714     20713     20715     20714     20713     20716     20715     20713     20716
     20716     20717     20718     20716     20717     20719     20717     20719     20720
     20717     20719     20721     20717     20719     20769     20718     20717     20719
     20719     20769     20770     20719     20769     20771     20719     20769     20772
     20720     20719     20721     20720     20719     20769     20721     20719     20769
     20722     20725     20726     20722     20725     20727     20722     20725     20728
     20723     20722     20724     20723     20722     20725     20724     20722     20725
     20725     20728     20729     20725     20728     20730     20726     20725     20727
     20726     20725     20728     20727     20725     20728     20728     20730     20731
     20728     20730     20732     20729     20728     20730     20730     20732     20733
     20730     20732     20734     20730     20732     20735     20731     20730     20732
     20732     20735     20736     20732     20735     20737     20733     20732     20734
     20733     20732     20735     20734     20732     20735     20735     20737     20738
     20735     20737     20739     20736     20735     20737     20737     20739     20740
     20737     20739     20741     20737     20739     20742     20738     20737     20739
     20739     20742     20743     20739     20742     20744     20740     20739     20741
     20740     20739     20742     20741     20739     20742     20742     20744     20745
     20742     20744     20746     20743     20742     20744     20744     20746     20747
     20744     20746     20748     20744     20746     20749     20745     20744     20746
     20746     20749     20750     20746     20749     20751     20747     20746     20748
     20747     20746     20749     20748     20746     20749     20749     20751     20752
     20749     20751     20753     20750     20749     20751     20751     20753     20754
     20751     20753     20755     20751     20753     20756     20752     20751     20753
     20753     20756     20757     20753     20756     20758     20753     20756     20759
     20754     20753     20755     20754     20753     20756     20755     20753     20756
     20756     20759     20760     20756     20759     20761     20756     20759     20762
     20757     20756     20758     20757     20756     20759     20758     20756     20759
     20759     20762     20763     20759     20762     20764     20759     20762     20765
     20760     20759     20761     20760     20759     20762     20761     20759     20762
     20762     20765     20766     20762     20765     20767     20762     20765     20768
     20763     20762     20764     20763     20762     20765     20764     20762     20765
     20766     20765     20767     20766     20765     20768     20767     20765     20768
     20769     20772     20773     20769     20772     20774     20769     20772     20775
     20770     20769     20771     20770     20769     20772     20771     20769     20772
     20772     20775     20776     20772     20775     20777     20772     20775     20778
     20773     20772     20774     20773     20772     20775     20774     20772     20775
     20775     20778     20779     20775     20778     20780     20775     20778     20781
     20776     20775     20777     20776     20775     20778     20777     20775     20778
     20778     20781     20782     20778     20781     20783     20778     20781     20784
     20779     20778     20780     20779     20778     20781     20780     20778     20781
     20781     20784     20785     20781     20784     20786     20781     20784     20787
     20782     20781     20783     20782     20781     20784     20783     20781     20784
     20784     20787     20788     20784     20787     20789     20784     20787     20790
     20785     20784     20786     20785     20784     20787     20786     20784     20787
     20787     20790     20791     20787     20790     20792     20787     20790     20793
     20788     20787     20789     20788     20787     20790     20789     20787     20790
     20790     20793     20794     20790     20793     20795     20790     20793     20796
     20791     20790     20792     20791     20790     20793     20792     20790     20793
     20793     20796     20797     20793     20796     20798     20793     20796     20799
     20794     20793     20795     20794     20793     20796     20795     20793     20796
     20796     20799     20800     20796     20799     20801     20796     20799     20802
     20797     20796     20798     20797     20796     20799     20798     20796     20799
     20799     20802     20803     20799     20802     20804     20799     20802     20805
     20800     20799     20801     20800     20799     20802     20801     20799     20802
     20802     20805     20806     20802     20805     20807     20802     20805     20808
     20803     20802     20804     20803     20802     20805     20804     20802     20805
     20805     20808     20809     20805     20808     20810     20805     20808     20811
     20806     20805     20807     20806     20805     20808     20807     20805     20808
     20808     20811     20812     20808     20811     20813     20808     20811     20814
     20809     20808     20810     20809     20808     20811     20810     20808     20811
     20811     20814     20815     20811     20814     20816     20811     20814     20817
     20812     20811     20813     20812     20811     20814     20813     20811     20814
     20815     20814     20816     20815     20814     20817     20816     20814     20817
     20818     20819     20820     20818     20819     20821     20818     20819     20822
     20818     20823     20824     20818     20823     20825     20818     20823     20826
     20818     20827     20828     20818     20827     20829     20818     20827     20830
     20818     20831     20832     20818     20831     20833     20818     20831     20834
     20819     20818     20823     20819     20818     20827     20819     20818     20831
     20820     20819     20821     20820     20819     20822     20821     20819     20822
     20823     20818     20827     20823     20818     20831     20824     20823     20825
     20824     20823     20826     20825     20823     20826     20827     20818     20831
     20828     20827     20829     20828     20827     20830     20829     20827     20830
     20831     20834     20835     20831     20834     20836     20831     20834     20841
     20832     20831     20833     20832     20831     20834     20833     20831     20834
     20834     20841     20837     20835     20834     20836     20835     20834     20841
     20836     20834     20841     20837     20840     20842     20838     20837     20839
     20838     20837     20840     20838     20837     20841     20839     20837     20840
     20839     20837     20841     20840     20837     20841     20840     20842     20843
     20840     20842     20844     20840     20842     20847     20842     20847     20845
     20842     20847     20848     20842     20847     20849     20843     20842     20844
     20843     20842     20847     20844     20842     20847     20845     20847     20848
     20845     20847     20849     20845     20897     20898     20845     20897     20899
     20846     20845     20847     20846     20845     20897     20847     20845     20897
     20847     20849     20850     20847     20849     20851     20847     20849     20853
     20848     20847     20849     20849     20851     20852     20849     20853     20854
     20849     20853     20855     20850     20849     20851     20850     20849     20853
     20851     20849     20853     20853     20855     20856     20853     20855     20857
     20854     20853     20855     20855     20857     20858     20855     20857     20859
     20855     20857     20860     20856     20855     20857     20857     20860     20861
     20857     20860     20862     20857     20860     20863     20858     20857     20859
     20858     20857     20860     20859     20857     20860     20860     20863     20864
     20860     20863     20865     20860     20863     20866     20861     20860     20862
     20861     20860     20863     20862     20860     20863     20863     20866     20867
     20863     20866     20868     20863     20866     20869     20864     20863     20865
     20864     20863     20866     20865     20863     20866     20866     20869     20870
     20866     20869     20871     20866     20869     20872     20867     20866     20868
     20867     20866     20869     20868     20866     20869     20869     20872     20873
     20869     20872     20874     20869     20872     20875     20870     20869     20871
     20870     20869     20872     20871     20869     20872     20872     20875     20876
     20872     20875     20877     20872     20875     20878     20873     20872     20874
     20873     20872     20875     20874     20872     20875     20875     20878     20879
     20875     20878     20880     20875     20878     20881     20876     20875     20877
     20876     20875     20878     20877     20875     20878     20878     20881     20882
     20878     20881     20883     20878     20881     20884     20879     20878     20880
     20879     20878     20881     20880     20878     20881     20881     20884     20885
     20881     20884     20886     20881     20884     20887     20882     20881     20883
     20882     20881     20884     20883     20881     20884     20884     20887     20888
     20884     20887     20889     20884     20887     20890     20885     20884     20886
     20885     20884     20887     20886     20884     20887     20887     20890     20891
     20887     20890     20892     20887     20890     20893     20888     20887     20889
     20888     20887     20890     20889     20887     20890     20890     20893     20894
     20890     20893     20895     20890     20893     20896     20891     20890     20892
     20891     20890     20893     20892     20890     20893     20894     20893     20895
     20894     20893     20896     20895     20893     20896     20897     20899     20900
     20897     20899     20901     20897     20899     20902     20898     20897     20899
     20899     20902     20903     20899     20902     20904     20899     20902     20905
     20900     20899     20901     20900     20899     20902     20901     20899     20902
     20902     20905     20906     20902     20905     20907     20902     20905     20908
     20903     20902     20904     20903     20902     20905     20904     20902     20905
     20905     20908     20909     20905     20908     20910     20905     20908     20911
     20906     20905     20907     20906     20905     20908     20907     20905     20908
     20908     20911     20912     20908     20911     20913     20908     20911     20914
     20909     20908     20910     20909     20908     20911     20910     20908     20911
     20911     20914     20915     20911     20914     20916     20911     20914     20917
     20912     20911     20913     20912     20911     20914     20913     20911     20914
     20914     20917     20918     20914     20917     20919     20914     20917     20920
     20915     20914     20916     20915     20914     20917     20916     20914     20917
     20917     20920     20921     20917     20920     20922     20918     20917     20919
     20918     20917     20920     20919     20917     20920     20920     20922     20923
     20920     20922     20924     20921     20920     20922     20922     20924     20925
     20922     20924     20926     20922     20924     20927     20923     20922     20924
     20924     20927     20928     20924     20927     20929     20924     20927     20930
     20925     20924     20926     20925     20924     20927     20926     20924     20927
     20927     20930     20931     20927     20930     20932     20927     20930     20933
     20928     20927     20929     20928     20927     20930     20929     20927     20930
     20930     20933     20934     20930     20933     20935     20930     20933     20936
     20931     20930     20932     20931     20930     20933     20932     20930     20933
     20933     20936     20937     20933     20936     20938     20933     20936     20939
     20934     20933     20935     20934     20933     20936     20935     20933     20936
     20936     20939     20940     20936     20939     20941     20936     20939     20942
     20937     20936     20938     20937     20936     20939     20938     20936     20939
     20939     20942     20943     20939     20942     20944     20939     20942     20945
     20940     20939     20941     20940     20939     20942     20941     20939     20942
     20942     20945     20946     20942     20945     20947     20942     20945     20948
     20943     20942     20944     20943     20942     20945     20944     20942     20945
     20946     20945     20947     20946     20945     20948     20947     20945     20948
     20949     20953     20954     20949     20953     20955     20949     20953     20958
     20950     20949     20951     20950     20949     20952     20950     20949     20953
     20951     20949     20952     20951     20949     20953     20952     20949     20953
     20953     20955     20956     20953     20955     20957     20953     20958     20959
     20953     20958     20960     20953     20958     20964     20954     20953     20955
     20954     20953     20958     20955     20953     20958     20956     20955     20957
     20958     20964     20961     20959     20958     20960     20959     20958     20964
     20960     20958     20964     20961     20965     20966     20962     20961     20963
     20962     20961     20964     20962     20961     20965     20963     20961     20964
     20963     20961     20965     20964     20961     20965     20965     20966     20967
     20965     20966     20968     20965     20966     20969     20966     20969     20970
     20966     20969     20971     20966     20969     20977     20967     20966     20968
     20967     20966     20969     20968     20966     20969     20969     20971     20972
     20969     20977     20978     20969     20977     20979     20969     20977     20980
     20970     20969     20971     20970     20969     20977     20971     20969     20977
     20971     20972     20973     20971     20972     20974     20972     20974     20975
     20972     20974     20976     20972     20974     20986     20973     20972     20974
     20974     20986     20987     20974     20986     20988     20974     20986     20989
     20975     20974     20976     20975     20974     20986     20976     20974     20986
     20977     20980     20981     20978     20977     20979     20978     20977     20980
     20979     20977     20980     20980     20981     20982     20980     20981     20983
     20981     20983     20984     20981     20983     20985     20981     20983     21033
     20982     20981     20983     20983     21033     21034     20983     21033     21035
     20983     21033     21036     20984     20983     20985     20984     20983     21033
     20985     20983     21033     20986     20989     20990     20986     20989     20991
     20986     20989     20992     20987     20986     20988     20987     20986     20989
     20988     20986     20989     20989     20992     20993     20989     20992     20994
     20990     20989     20991     20990     20989     20992     20991     20989     20992
     20992     20994     20995     20992     20994     20996     20993     20992     20994
     20994     20996     20997     20994     20996     20998     20994     20996     20999
     20995     20994     20996     20996     20999     21000     20996     20999     21001
     20997     20996     20998     20997     20996     20999     20998     20996     20999
     20999     21001     21002     20999     21001     21003     21000     20999     21001
     21001     21003     21004     21001     21003     21005     21001     21003     21006
     21002     21001     21003     21003     21006     21007     21003     21006     21008
     21004     21003     21005     21004     21003     21006     21005     21003     21006
     21006     21008     21009     21006     21008     21010     21007     21006     21008
     21008     21010     21011     21008     21010     21012     21008     21010     21013
     21009     21008     21010     21010     21013     21014     21010     21013     21015
     21011     21010     21012     21011     21010     21013     21012     21010     21013
     21013     21015     21016     21013     21015     21017     21014     21013     21015
     21015     21017     21018     21015     21017     21019     21015     21017     21020
     21016     21015     21017     21017     21020     21021     21017     21020     21022
     21017     21020     21023     21018     21017     21019     21018     21017     21020
     21019     21017     21020     21020     21023     21024     21020     21023     21025
     21020     21023     21026     21021     21020     21022     21021     21020     21023
     21022     21020     21023     21023     21026     21027     21023     21026     21028
     21023     21026     21029     21024     21023     21025     21024     21023     21026
     21025     21023     21026     21026     21029     21030     21026     21029     21031
     21026     21029     21032     21027     21026     21028     21027     21026     21029
     21028     21026     21029     21030     21029     21031     21030     21029     21032
     21031     21029     21032     21033     21036     21037     21033     21036     21038
     21033     21036     21039     21034     21033     21035     21034     21033     21036
     21035     21033     21036     21036     21039     21040     21036     21039     21041
     21036     21039     21042     21037     21036     21038     21037     21036     21039
     21038     21036     21039     21039     21042     21043     21039     21042     21044
     21039     21042     21045     21040     21039     21041     21040     21039     21042
     21041     21039     21042     21042     21045     21046     21042     21045     21047
     21042     21045     21048     21043     21042     21044     21043     21042     21045
     21044     21042     21045     21045     21048     21049     21045     21048     21050
     21045     21048     21051     21046     21045     21047     21046     21045     21048
     21047     21045     21048     21048     21051     21052     21048     21051     21053
     21048     21051     21054     21049     21048     21050     21049     21048     21051
     21050     21048     21051     21051     21054     21055     21051     21054     21056
     21051     21054     21057     21052     21051     21053     21052     21051     21054
     21053     21051     21054     21054     21057     21058     21054     21057     21059
     21054     21057     21060     21055     21054     21056     21055     21054     21057
     21056     21054     21057     21057     21060     21061     21057     21060     21062
     21057     21060     21063     21058     21057     21059     21058     21057     21060
     21059     21057     21060     21060     21063     21064     21060     21063     21065
     21060     21063     21066     21061     21060     21062     21061     21060     21063
     21062     21060     21063     21063     21066     21067     21063     21066     21068
     21063     21066     21069     21064     21063     21065     21064     21063     21066
     21065     21063     21066     21066     21069     21070     21066     21069     21071
     21066     21069     21072     21067     21066     21068     21067     21066     21069
     21068     21066     21069     21069     21072     21073     21069     21072     21074
     21069     21072     21075     21070     21069     21071     21070     21069     21072
     21071     21069     21072     21072     21075     21076     21072     21075     21077
     21072     21075     21078     21073     21072     21074     21073     21072     21075
     21074     21072     21075     21075     21078     21079     21075     21078     21080
     21075     21078     21081     21076     21075     21077     21076     21075     21078
     21077     21075     21078     21079     21078     21080     21079     21078     21081
     21080     21078     21081     21082     21084     21085     21082     21086     21087
     21082     21086     21088     21082     21086     21089     21082     21128     21125
     21082     21128     21129     21082     21128     21130     21083     21082     21084
     21083     21082     21086     21083     21082     21128     21084     21082     21086
     21084     21082     21128     21086     21082     21128     21086     21089     21090
     21086     21089     21120     21087     21086     21088     21087     21086     21089
     21088     21086     21089     21089     21090     21091     21089     21090     21092
     21089     21120     21118     21089     21120     21121     21089     21120     21125
     21090     21089     21120     21090     21092     21093     21090     21092     21094
     21090     21092     21095     21091     21090     21092     21092     21095     21096
     21092     21095     21097     21092     21095     21118     21093     21092     21094
     21093     21092     21095     21094     21092     21095     21095     21097     21098
     21095     21097     21099     21095     21097     21107     21095     21118     21115
     21095     21118     21119     21095     21118     21120     21096     21095     21097
     21096     21095     21118     21097     21095     21118     21097     21099     21100
     21097     21099     21101     21097     21099     21102     21097     21107     21105
     21097     21107     21108     21097     21107     21112     21098     21097     21099
     21098     21097     21107     21099     21097     21107     21099     21102     21103
     21099     21102     21104     21099     21102     21105     21100     21099     21101
     21100     21099     21102     21101     21099     21102     21102     21105     21106
     21102     21105     21107     21102     21105     21131     21103     21102     21104
     21103     21102     21105     21104     21102     21105     21105     21107     21108
     21105     21107     21112     21105     21131     21132     21105     21131     21133
     21105     21131     21137     21106     21105     21107     21106     21105     21131
     21107     21105     21131     21107     21108     21109     21107     21108     21110
     21107     21108     21111     21107     21112     21113     21107     21112     21114
     21107     21112     21115     21108     21107     21112     21109     21108     21110
     21109     21108     21111     21110     21108     21111     21112     21115     21116
     21112     21115     21117     21112     21115     21118     21113     21112     21114
     21113     21112     21115     21114     21112     21115     21115     21118     21119
     21115     21118     21120     21116     21115     21117     21116     21115     21118
     21117     21115     21118     21118     21120     21121     21118     21120     21125
     21119     21118     21120     21120     21121     21122     21120     21121     21123
     21120     21121     21124     21120     21125     21126     21120     21125     21127
     21120     21125     21128     21121     21120     21125     21122     21121     21123
     21122     21121     21124     21123     21121     21124     21125     21128     21129
     21125     21128     21130     21126     21125     21127     21126     21125     21128
     21127     21125     21128     21129     21128     21130     21131     21133     21134
     21131     21133     21135     21131     21133     21136     21131     21137     21138
     21131     21137     21139     21131     21137     21140     21132     21131     21133
     21132     21131     21137     21133     21131     21137     21134     21133     21135
     21134     21133     21136     21135     21133     21136     21137     21140     21141
     21137     21140     21142     21137     21140     21143     21138     21137     21139
     21138     21137     21140     21139     21137     21140     21140     21143     21144
     21140     21143     21145     21140     21143     21146     21141     21140     21142
     21141     21140     21143     21142     21140     21143     21143     21146     21147
     21143     21146     21148     21143     21146     21152     21144     21143     21145
     21144     21143     21146     21145     21143     21146     21146     21148     21149
     21146     21148     21150     21146     21148     21151     21146     21152     21153
     21146     21152     21154     21146     21152     21155     21147     21146     21148
     21147     21146     21152     21148     21146     21152     21149     21148     21150
     21149     21148     21151     21150     21148     21151     21153     21152     21154
     21153     21152     21155     21154     21152     21155     21156     21158     21159
     21156     21160     21161     21156     21160     21162     21156     21160     21163
     21156     21202     21199     21156     21202     21203     21156     21202     21204
     21157     21156     21158     21157     21156     21160     21157     21156     21202
     21158     21156     21160     21158     21156     21202     21160     21156     21202
     21160     21163     21164     21160     21163     21194     21161     21160     21162
     21161     21160     21163     21162     21160     21163     21163     21164     21165
     21163     21164     21166     21163     21194     21192     21163     21194     21195
     21163     21194     21199     21164     21163     21194     21164     21166     21167
     21164     21166     21168     21164     21166     21169     21165     21164     21166
     21166     21169     21170     21166     21169     21171     21166     21169     21192
     21167     21166     21168     21167     21166     21169     21168     21166     21169
     21169     21171     21172     21169     21171     21173     21169     21171     21181
     21169     21192     21189     21169     21192     21193     21169     21192     21194
     21170     21169     21171     21170     21169     21192     21171     21169     21192
     21171     21173     21174     21171     21173     21175     21171     21173     21176
     21171     21181     21179     21171     21181     21182     21171     21181     21186
     21172     21171     21173     21172     21171     21181     21173     21171     21181
     21173     21176     21177     21173     21176     21178     21173     21176     21179
     21174     21173     21175     21174     21173     21176     21175     21173     21176
     21176     21179     21180     21176     21179     21181     21176     21179     21205
     21177     21176     21178     21177     21176     21179     21178     21176     21179
     21179     21181     21182     21179     21181     21186     21179     21205     21206
     21179     21205     21207     21179     21205     21211     21180     21179     21181
     21180     21179     21205     21181     21179     21205     21181     21182     21183
     21181     21182     21184     21181     21182     21185     21181     21186     21187
     21181     21186     21188     21181     21186     21189     21182     21181     21186
     21183     21182     21184     21183     21182     21185     21184     21182     21185
     21186     21189     21190     21186     21189     21191     21186     21189     21192
     21187     21186     21188     21187     21186     21189     21188     21186     21189
     21189     21192     21193     21189     21192     21194     21190     21189     21191
     21190     21189     21192     21191     21189     21192     21192     21194     21195
     21192     21194     21199     21193     21192     21194     21194     21195     21196
     21194     21195     21197     21194     21195     21198     21194     21199     21200
     21194     21199     21201     21194     21199     21202     21195     21194     21199
     21196     21195     21197     21196     21195     21198     21197     21195     21198
     21199     21202     21203     21199     21202     21204     21200     21199     21201
     21200     21199     21202     21201     21199     21202     21203     21202     21204
     21205     21207     21208     21205     21207     21209     21205     21207     21210
     21205     21211     21212     21205     21211     21213     21205     21211     21214
     21206     21205     21207     21206     21205     21211     21207     21205     21211
     21208     21207     21209     21208     21207     21210     21209     21207     21210
     21211     21214     21215     21211     21214     21216     21211     21214     21217
     21212     21211     21213     21212     21211     21214     21213     21211     21214
     21214     21217     21218     21214     21217     21219     21214     21217     21220
     21215     21214     21216     21215     21214     21217     21216     21214     21217
     21217     21220     21221     21217     21220     21222     21217     21220     21226
     21218     21217     21219     21218     21217     21220     21219     21217     21220
     21220     21222     21223     21220     21222     21224     21220     21222     21225
     21220     21226     21227     21220     21226     21228     21220     21226     21229
     21221     21220     21222     21221     21220     21226     21222     21220     21226
     21223     21222     21224     21223     21222     21225     21224     21222     21225
     21227     21226     21228     21227     21226     21229     21228     21226     21229
     21230     21231     21232     21230     21231     21233     21230     21231     21234
     21230     21235     21236     21230     21235     21237     21230     21235     21238
     21230     21239     21240     21230     21239     21241     21230     21239     21242
     21230     21243     21244     21230     21243     21245     21230     21243     21246
     21231     21230     21235     21231     21230     21239     21231     21230     21243
     21232     21231     21233     21232     21231     21234     21233     21231     21234
     21235     21230     21239     21235     21230     21243     21236     21235     21237
     21236     21235     21238     21237     21235     21238     21239     21230     21243
     21240     21239     21241     21240     21239     21242     21241     21239     21242
     21243     21246     21247     21243     21246     21248     21243     21246     21253
     21244     21243     21245     21244     21243     21246     21245     21243     21246
     21246     21253     21249     21247     21246     21248     21247     21246     21253
     21248     21246     21253     21249     21252     21254     21250     21249     21251
     21250     21249     21252     21250     21249     21253     21251     21249     21252
     21251     21249     21253     21252     21249     21253     21252     21254     21255
     21252     21254     21256     21252     21254     21259     21254     21259     21257
     21254     21259     21260     21254     21259     21261     21255     21254     21256
     21255     21254     21259     21256     21254     21259     21257     21259     21260
     21257     21259     21261     21257     21309     21310     21257     21309     21311
     21258     21257     21259     21258     21257     21309     21259     21257     21309
     21259     21261     21262     21259     21261     21263     21259     21261     21265
     21260     21259     21261     21261     21263     21264     21261     21265     21266
     21261     21265     21267     21262     21261     21263     21262     21261     21265
     21263     21261     21265     21265     21267     21268     21265     21267     21269
     21266     21265     21267     21267     21269     21270     21267     21269     21271
     21267     21269     21272     21268     21267     21269     21269     21272     21273
     21269     21272     21274     21269     21272     21275     21270     21269     21271
     21270     21269     21272     21271     21269     21272     21272     21275     21276
     21272     21275     21277     21272     21275     21278     21273     21272     21274
     21273     21272     21275     21274     21272     21275     21275     21278     21279
     21275     21278     21280     21275     21278     21281     21276     21275     21277
     21276     21275     21278     21277     21275     21278     21278     21281     21282
     21278     21281     21283     21278     21281     21284     21279     21278     21280
     21279     21278     21281     21280     21278     21281     21281     21284     21285
     21281     21284     21286     21281     21284     21287     21282     21281     21283
     21282     21281     21284     21283     21281     21284     21284     21287     21288
     21284     21287     21289     21284     21287     21290     21285     21284     21286
     21285     21284     21287     21286     21284     21287     21287     21290     21291
     21287     21290     21292     21287     21290     21293     21288     21287     21289
     21288     21287     21290     21289     21287     21290     21290     21293     21294
     21290     21293     21295     21290     21293     21296     21291     21290     21292
     21291     21290     21293     21292     21290     21293     21293     21296     21297
     21293     21296     21298     21293     21296     21299     21294     21293     21295
     21294     21293     21296     21295     21293     21296     21296     21299     21300
     21296     21299     21301     21296     21299     21302     21297     21296     21298
     21297     21296     21299     21298     21296     21299     21299     21302     21303
     21299     21302     21304     21299     21302     21305     21300     21299     21301
     21300     21299     21302     21301     21299     21302     21302     21305     21306
     21302     21305     21307     21302     21305     21308     21303     21302     21304
     21303     21302     21305     21304     21302     21305     21306     21305     21307
     21306     21305     21308     21307     21305     21308     21309     21311     21312
     21309     21311     21313     21309     21311     21314     21310     21309     21311
     21311     21314     21315     21311     21314     21316     21311     21314     21317
     21312     21311     21313     21312     21311     21314     21313     21311     21314
     21314     21317     21318     21314     21317     21319     21314     21317     21320
     21315     21314     21316     21315     21314     21317     21316     21314     21317
     21317     21320     21321     21317     21320     21322     21317     21320     21323
     21318     21317     21319     21318     21317     21320     21319     21317     21320
     21320     21323     21324     21320     21323     21325     21320     21323     21326
     21321     21320     21322     21321     21320     21323     21322     21320     21323
     21323     21326     21327     21323     21326     21328     21323     21326     21329
     21324     21323     21325     21324     21323     21326     21325     21323     21326
     21326     21329     21330     21326     21329     21331     21326     21329     21332
     21327     21326     21328     21327     21326     21329     21328     21326     21329
     21329     21332     21333     21329     21332     21334     21330     21329     21331
     21330     21329     21332     21331     21329     21332     21332     21334     21335
     21332     21334     21336     21333     21332     21334     21334     21336     21337
     21334     21336     21338     21334     21336     21339     21335     21334     21336
     21336     21339     21340     21336     21339     21341     21336     21339     21342
     21337     21336     21338     21337     21336     21339     21338     21336     21339
     21339     21342     21343     21339     21342     21344     21339     21342     21345
     21340     21339     21341     21340     21339     21342     21341     21339     21342
     21342     21345     21346     21342     21345     21347     21342     21345     21348
     21343     21342     21344     21343     21342     21345     21344     21342     21345
     21345     21348     21349     21345     21348     21350     21345     21348     21351
     21346     21345     21347     21346     21345     21348     21347     21345     21348
     21348     21351     21352     21348     21351     21353     21348     21351     21354
     21349     21348     21350     21349     21348     21351     21350     21348     21351
     21351     21354     21355     21351     21354     21356     21351     21354     21357
     21352     21351     21353     21352     21351     21354     21353     21351     21354
     21354     21357     21358     21354     21357     21359     21354     21357     21360
     21355     21354     21356     21355     21354     21357     21356     21354     21357
     21358     21357     21359     21358     21357     21360     21359     21357     21360
     21361     21363     21364     21361     21365     21366     21361     21365     21367
     21361     21365     21368     21361     21407     21404     21361     21407     21408
     21361     21407     21409     21362     21361     21363     21362     21361     21365
     21362     21361     21407     21363     21361     21365     21363     21361     21407
     21365     21361     21407     21365     21368     21369     21365     21368     21399
     21366     21365     21367     21366     21365     21368     21367     21365     21368
     21368     21369     21370     21368     21369     21371     21368     21399     21397
     21368     21399     21400     21368     21399     21404     21369     21368     21399
     21369     21371     21372     21369     21371     21373     21369     21371     21374
     21370     21369     21371     21371     21374     21375     21371     21374     21376
     21371     21374     21397     21372     21371     21373     21372     21371     21374
     21373     21371     21374     21374     21376     21377     21374     21376     21378
     21374     21376     21386     21374     21397     21394     21374     21397     21398
     21374     21397     21399     21375     21374     21376     21375     21374     21397
     21376     21374     21397     21376     21378     21379     21376     21378     21380
     21376     21378     21381     21376     21386     21384     21376     21386     21387
     21376     21386     21391     21377     21376     21378     21377     21376     21386
     21378     21376     21386     21378     21381     21382     21378     21381     21383
     21378     21381     21384     21379     21378     21380     21379     21378     21381
     21380     21378     21381     21381     21384     21385     21381     21384     21386
     21381     21384     21410     21382     21381     21383     21382     21381     21384
     21383     21381     21384     21384     21386     21387     21384     21386     21391
     21384     21410     21411     21384     21410     21412     21384     21410     21416
     21385     21384     21386     21385     21384     21410     21386     21384     21410
     21386     21387     21388     21386     21387     21389     21386     21387     21390
     21386     21391     21392     21386     21391     21393     21386     21391     21394
     21387     21386     21391     21388     21387     21389     21388     21387     21390
     21389     21387     21390     21391     21394     21395     21391     21394     21396
     21391     21394     21397     21392     21391     21393     21392     21391     21394
     21393     21391     21394     21394     21397     21398     21394     21397     21399
     21395     21394     21396     21395     21394     21397     21396     21394     21397
     21397     21399     21400     21397     21399     21404     21398     21397     21399
     21399     21400     21401     21399     21400     21402     21399     21400     21403
     21399     21404     21405     21399     21404     21406     21399     21404     21407
     21400     21399     21404     21401     21400     21402     21401     21400     21403
     21402     21400     21403     21404     21407     21408     21404     21407     21409
     21405     21404     21406     21405     21404     21407     21406     21404     21407
     21408     21407     21409     21410     21412     21413     21410     21412     21414
     21410     21412     21415     21410     21416     21417     21410     21416     21418
     21410     21416     21419     21411     21410     21412     21411     21410     21416
     21412     21410     21416     21413     21412     21414     21413     21412     21415
     21414     21412     21415     21416     21419     21420     21416     21419     21421
     21416     21419     21422     21417     21416     21418     21417     21416     21419
     21418     21416     21419     21419     21422     21423     21419     21422     21424
     21419     21422     21425     21420     21419     21421     21420     21419     21422
     21421     21419     21422     21422     21425     21426     21422     21425     21427
     21422     21425     21431     21423     21422     21424     21423     21422     21425
     21424     21422     21425     21425     21427     21428     21425     21427     21429
     21425     21427     21430     21425     21431     21432     21425     21431     21433
     21425     21431     21434     21426     21425     21427     21426     21425     21431
     21427     21425     21431     21428     21427     21429     21428     21427     21430
     21429     21427     21430     21432     21431     21433     21432     21431     21434
     21433     21431     21434     21435     21439     21440     21435     21439     21441
     21435     21439     21442     21436     21435     21437     21436     21435     21438
     21436     21435     21439     21437     21435     21438     21437     21435     21439
     21438     21435     21439     21439     21442     21443     21439     21442     21444
     21439     21442     21448     21440     21439     21441     21440     21439     21442
     21441     21439     21442     21442     21448     21445     21443     21442     21444
     21443     21442     21448     21444     21442     21448     21445     21449     21450
     21446     21445     21447     21446     21445     21448     21446     21445     21449
     21447     21445     21448     21447     21445     21449     21448     21445     21449
     21449     21450     21451     21449     21450     21452     21449     21450     21453
     21450     21453     21454     21450     21453     21455     21450     21453     21461
     21451     21450     21452     21451     21450     21453     21452     21450     21453
     21453     21455     21456     21453     21461     21462     21453     21461     21463
     21453     21461     21464     21454     21453     21455     21454     21453     21461
     21455     21453     21461     21455     21456     21457     21455     21456     21458
     21456     21458     21459     21456     21458     21460     21456     21458     21470
     21457     21456     21458     21458     21470     21471     21458     21470     21472
     21458     21470     21473     21459     21458     21460     21459     21458     21470
     21460     21458     21470     21461     21464     21465     21462     21461     21463
     21462     21461     21464     21463     21461     21464     21464     21465     21466
     21464     21465     21467     21465     21467     21468     21465     21467     21469
     21465     21467     21517     21466     21465     21467     21467     21517     21518
     21467     21517     21519     21467     21517     21520     21468     21467     21469
     21468     21467     21517     21469     21467     21517     21470     21473     21474
     21470     21473     21475     21470     21473     21476     21471     21470     21472
     21471     21470     21473     21472     21470     21473     21473     21476     21477
     21473     21476     21478     21474     21473     21475     21474     21473     21476
     21475     21473     21476     21476     21478     21479     21476     21478     21480
     21477     21476     21478     21478     21480     21481     21478     21480     21482
     21478     21480     21483     21479     21478     21480     21480     21483     21484
     21480     21483     21485     21481     21480     21482     21481     21480     21483
     21482     21480     21483     21483     21485     21486     21483     21485     21487
     21484     21483     21485     21485     21487     21488     21485     21487     21489
     21485     21487     21490     21486     21485     21487     21487     21490     21491
     21487     21490     21492     21488     21487     21489     21488     21487     21490
     21489     21487     21490     21490     21492     21493     21490     21492     21494
     21491     21490     21492     21492     21494     21495     21492     21494     21496
     21492     21494     21497     21493     21492     21494     21494     21497     21498
     21494     21497     21499     21495     21494     21496     21495     21494     21497
     21496     21494     21497     21497     21499     21500     21497     21499     21501
     21498     21497     21499     21499     21501     21502     21499     21501     21503
     21499     21501     21504     21500     21499     21501     21501     21504     21505
     21501     21504     21506     21501     21504     21507     21502     21501     21503
     21502     21501     21504     21503     21501     21504     21504     21507     21508
     21504     21507     21509     21504     21507     21510     21505     21504     21506
     21505     21504     21507     21506     21504     21507     21507     21510     21511
     21507     21510     21512     21507     21510     21513     21508     21507     21509
     21508     21507     21510     21509     21507     21510     21510     21513     21514
     21510     21513     21515     21510     21513     21516     21511     21510     21512
     21511     21510     21513     21512     21510     21513     21514     21513     21515
     21514     21513     21516     21515     21513     21516     21517     21520     21521
     21517     21520     21522     21517     21520     21523     21518     21517     21519
     21518     21517     21520     21519     21517     21520     21520     21523     21524
     21520     21523     21525     21520     21523     21526     21521     21520     21522
     21521     21520     21523     21522     21520     21523     21523     21526     21527
     21523     21526     21528     21523     21526     21529     21524     21523     21525
     21524     21523     21526     21525     21523     21526     21526     21529     21530
     21526     21529     21531     21526     21529     21532     21527     21526     21528
     21527     21526     21529     21528     21526     21529     21529     21532     21533
     21529     21532     21534     21529     21532     21535     21530     21529     21531
     21530     21529     21532     21531     21529     21532     21532     21535     21536
     21532     21535     21537     21532     21535     21538     21533     21532     21534
     21533     21532     21535     21534     21532     21535     21535     21538     21539
     21535     21538     21540     21535     21538     21541     21536     21535     21537
     21536     21535     21538     21537     21535     21538     21538     21541     21542
     21538     21541     21543     21538     21541     21544     21539     21538     21540
     21539     21538     21541     21540     21538     21541     21541     21544     21545
     21541     21544     21546     21541     21544     21547     21542     21541     21543
     21542     21541     21544     21543     21541     21544     21544     21547     21548
     21544     21547     21549     21544     21547     21550     21545     21544     21546
     21545     21544     21547     21546     21544     21547     21547     21550     21551
     21547     21550     21552     21547     21550     21553     21548     21547     21549
     21548     21547     21550     21549     21547     21550     21550     21553     21554
     21550     21553     21555     21550     21553     21556     21551     21550     21552
     21551     21550     21553     21552     21550     21553     21553     21556     21557
     21553     21556     21558     21553     21556     21559     21554     21553     21555
     21554     21553     21556     21555     21553     21556     21556     21559     21560
     21556     21559     21561     21556     21559     21562     21557     21556     21558
     21557     21556     21559     21558     21556     21559     21559     21562     21563
     21559     21562     21564     21559     21562     21565     21560     21559     21561
     21560     21559     21562     21561     21559     21562     21563     21562     21564
     21563     21562     21565     21564     21562     21565     21566     21570     21571
     21566     21570     21572     21566     21570     21573     21567     21566     21568
     21567     21566     21569     21567     21566     21570     21568     21566     21569
     21568     21566     21570     21569     21566     21570     21570     21573     21574
     21570     21573     21575     21570     21573     21579     21571     21570     21572
     21571     21570     21573     21572     21570     21573     21573     21579     21576
     21574     21573     21575     21574     21573     21579     21575     21573     21579
     21576     21580     21581     21577     21576     21578     21577     21576     21579
     21577     21576     21580     21578     21576     21579     21578     21576     21580
     21579     21576     21580     21580     21581     21582     21580     21581     21583
     21580     21581     21584     21581     21584     21585     21581     21584     21586
     21581     21584     21592     21582     21581     21583     21582     21581     21584
     21583     21581     21584     21584     21586     21587     21584     21592     21593
     21584     21592     21594     21584     21592     21595     21585     21584     21586
     21585     21584     21592     21586     21584     21592     21586     21587     21588
     21586     21587     21589     21587     21589     21590     21587     21589     21591
     21587     21589     21601     21588     21587     21589     21589     21601     21602
     21589     21601     21603     21589     21601     21604     21590     21589     21591
     21590     21589     21601     21591     21589     21601     21592     21595     21596
     21593     21592     21594     21593     21592     21595     21594     21592     21595
     21595     21596     21597     21595     21596     21598     21596     21598     21599
     21596     21598     21600     21596     21598     21648     21597     21596     21598
     21598     21648     21649     21598     21648     21650     21598     21648     21651
     21599     21598     21600     21599     21598     21648     21600     21598     21648
     21601     21604     21605     21601     21604     21606     21601     21604     21607
     21602     21601     21603     21602     21601     21604     21603     21601     21604
     21604     21607     21608     21604     21607     21609     21605     21604     21606
     21605     21604     21607     21606     21604     21607     21607     21609     21610
     21607     21609     21611     21608     21607     21609     21609     21611     21612
     21609     21611     21613     21609     21611     21614     21610     21609     21611
     21611     21614     21615     21611     21614     21616     21612     21611     21613
     21612     21611     21614     21613     21611     21614     21614     21616     21617
     21614     21616     21618     21615     21614     21616     21616     21618     21619
     21616     21618     21620     21616     21618     21621     21617     21616     21618
     21618     21621     21622     21618     21621     21623     21619     21618     21620
     21619     21618     21621     21620     21618     21621     21621     21623     21624
     21621     21623     21625     21622     21621     21623     21623     21625     21626
     21623     21625     21627     21623     21625     21628     21624     21623     21625
     21625     21628     21629     21625     21628     21630     21626     21625     21627
     21626     21625     21628     21627     21625     21628     21628     21630     21631
     21628     21630     21632     21629     21628     21630     21630     21632     21633
     21630     21632     21634     21630     21632     21635     21631     21630     21632
     21632     21635     21636     21632     21635     21637     21632     21635     21638
     21633     21632     21634     21633     21632     21635     21634     21632     21635
     21635     21638     21639     21635     21638     21640     21635     21638     21641
     21636     21635     21637     21636     21635     21638     21637     21635     21638
     21638     21641     21642     21638     21641     21643     21638     21641     21644
     21639     21638     21640     21639     21638     21641     21640     21638     21641
     21641     21644     21645     21641     21644     21646     21641     21644     21647
     21642     21641     21643     21642     21641     21644     21643     21641     21644
     21645     21644     21646     21645     21644     21647     21646     21644     21647
     21648     21651     21652     21648     21651     21653     21648     21651     21654
     21649     21648     21650     21649     21648     21651     21650     21648     21651
     21651     21654     21655     21651     21654     21656     21651     21654     21657
     21652     21651     21653     21652     21651     21654     21653     21651     21654
     21654     21657     21658     21654     21657     21659     21654     21657     21660
     21655     21654     21656     21655     21654     21657     21656     21654     21657
     21657     21660     21661     21657     21660     21662     21657     21660     21663
     21658     21657     21659     21658     21657     21660     21659     21657     21660
     21660     21663     21664     21660     21663     21665     21660     21663     21666
     21661     21660     21662     21661     21660     21663     21662     21660     21663
     21663     21666     21667     21663     21666     21668     21663     21666     21669
     21664     21663     21665     21664     21663     21666     21665     21663     21666
     21666     21669     21670     21666     21669     21671     21666     21669     21672
     21667     21666     21668     21667     21666     21669     21668     21666     21669
     21669     21672     21673     21669     21672     21674     21669     21672     21675
     21670     21669     21671     21670     21669     21672     21671     21669     21672
     21672     21675     21676     21672     21675     21677     21672     21675     21678
     21673     21672     21674     21673     21672     21675     21674     21672     21675
     21675     21678     21679     21675     21678     21680     21675     21678     21681
     21676     21675     21677     21676     21675     21678     21677     21675     21678
     21678     21681     21682     21678     21681     21683     21678     21681     21684
     21679     21678     21680     21679     21678     21681     21680     21678     21681
     21681     21684     21685     21681     21684     21686     21681     21684     21687
     21682     21681     21683     21682     21681     21684     21683     21681     21684
     21684     21687     21688     21684     21687     21689     21684     21687     21690
     21685     21684     21686     21685     21684     21687     21686     21684     21687
     21687     21690     21691     21687     21690     21692     21687     21690     21693
     21688     21687     21689     21688     21687     21690     21689     21687     21690
     21690     21693     21694     21690     21693     21695     21690     21693     21696
     21691     21690     21692     21691     21690     21693     21692     21690     21693
     21694     21693     21695     21694     21693     21696     21695     21693     21696
     21697     21699     21700     21697     21701     21702     21697     21701     21703
     21697     21701     21704     21697     21743     21740     21697     21743     21744
     21697     21743     21745     21698     21697     21699     21698     21697     21701
     21698     21697     21743     21699     21697     21701     21699     21697     21743
     21701     21697     21743     21701     21704     21705     21701     21704     21735
     21702     21701     21703     21702     21701     21704     21703     21701     21704
     21704     21705     21706     21704     21705     21707     21704     21735     21733
     21704     21735     21736     21704     21735     21740     21705     21704     21735
     21705     21707     21708     21705     21707     21709     21705     21707     21710
     21706     21705     21707     21707     21710     21711     21707     21710     21712
     21707     21710     21733     21708     21707     21709     21708     21707     21710
     21709     21707     21710     21710     21712     21713     21710     21712     21714
     21710     21712     21722     21710     21733     21730     21710     21733     21734
     21710     21733     21735     21711     21710     21712     21711     21710     21733
     21712     21710     21733     21712     21714     21715     21712     21714     21716
     21712     21714     21717     21712     21722     21720     21712     21722     21723
     21712     21722     21727     21713     21712     21714     21713     21712     21722
     21714     21712     21722     21714     21717     21718     21714     21717     21719
     21714     21717     21720     21715     21714     21716     21715     21714     21717
     21716     21714     21717     21717     21720     21721     21717     21720     21722
     21717     21720     21746     21718     21717     21719     21718     21717     21720
     21719     21717     21720     21720     21722     21723     21720     21722     21727
     21720     21746     21747     21720     21746     21748     21720     21746     21752
     21721     21720     21722     21721     21720     21746     21722     21720     21746
     21722     21723     21724     21722     21723     21725     21722     21723     21726
     21722     21727     21728     21722     21727     21729     21722     21727     21730
     21723     21722     21727     21724     21723     21725     21724     21723     21726
     21725     21723     21726     21727     21730     21731     21727     21730     21732
     21727     21730     21733     21728     21727     21729     21728     21727     21730
     21729     21727     21730     21730     21733     21734     21730     21733     21735
     21731     21730     21732     21731     21730     21733     21732     21730     21733
     21733     21735     21736     21733     21735     21740     21734     21733     21735
     21735     21736     21737     21735     21736     21738     21735     21736     21739
     21735     21740     21741     21735     21740     21742     21735     21740     21743
     21736     21735     21740     21737     21736     21738     21737     21736     21739
     21738     21736     21739     21740     21743     21744     21740     21743     21745
     21741     21740     21742     21741     21740     21743     21742     21740     21743
     21744     21743     21745     21746     21748     21749     21746     21748     21750
     21746     21748     21751     21746     21752     21753     21746     21752     21754
     21746     21752     21755     21747     21746     21748     21747     21746     21752
     21748     21746     21752     21749     21748     21750     21749     21748     21751
     21750     21748     21751     21752     21755     21756     21752     21755     21757
     21752     21755     21758     21753     21752     21754     21753     21752     21755
     21754     21752     21755     21755     21758     21759     21755     21758     21760
     21755     21758     21761     21756     21755     21757     21756     21755     21758
     21757     21755     21758     21758     21761     21762     21758     21761     21763
     21758     21761     21767     21759     21758     21760     21759     21758     21761
     21760     21758     21761     21761     21763     21764     21761     21763     21765
     21761     21763     21766     21761     21767     21768     21761     21767     21769
     21761     21767     21770     21762     21761     21763     21762     21761     21767
     21763     21761     21767     21764     21763     21765     21764     21763     21766
     21765     21763     21766     21768     21767     21769     21768     21767     21770
     21769     21767     21770     21771     21772     21773     21771     21772     21774
     21771     21772     21775     21771     21776     21777     21771     21776     21778
     21771     21776     21779     21771     21780     21781     21771     21780     21782
     21771     21780     21783     21771     21784     21785     21771     21784     21786
     21771     21784     21787     21772     21771     21776     21772     21771     21780
     21772     21771     21784     21773     21772     21774     21773     21772     21775
     21774     21772     21775     21776     21771     21780     21776     21771     21784
     21777     21776     21778     21777     21776     21779     21778     21776     21779
     21780     21771     21784     21781     21780     21782     21781     21780     21783
     21782     21780     21783     21784     21787     21788     21784     21787     21789
     21784     21787     21794     21785     21784     21786     21785     21784     21787
     21786     21784     21787     21787     21794     21790     21788     21787     21789
     21788     21787     21794     21789     21787     21794     21790     21793     21795
     21791     21790     21792     21791     21790     21793     21791     21790     21794
     21792     21790     21793     21792     21790     21794     21793     21790     21794
     21793     21795     21796     21793     21795     21797     21793     21795     21800
     21795     21800     21798     21795     21800     21801     21795     21800     21802
     21796     21795     21797     21796     21795     21800     21797     21795     21800
     21798     21800     21801     21798     21800     21802     21798     21850     21851
     21798     21850     21852     21799     21798     21800     21799     21798     21850
     21800     21798     21850     21800     21802     21803     21800     21802     21804
     21800     21802     21806     21801     21800     21802     21802     21804     21805
     21802     21806     21807     21802     21806     21808     21803     21802     21804
     21803     21802     21806     21804     21802     21806     21806     21808     21809
     21806     21808     21810     21807     21806     21808     21808     21810     21811
     21808     21810     21812     21808     21810     21813     21809     21808     21810
     21810     21813     21814     21810     21813     21815     21810     21813     21816
     21811     21810     21812     21811     21810     21813     21812     21810     21813
     21813     21816     21817     21813     21816     21818     21813     21816     21819
     21814     21813     21815     21814     21813     21816     21815     21813     21816
     21816     21819     21820     21816     21819     21821     21816     21819     21822
     21817     21816     21818     21817     21816     21819     21818     21816     21819
     21819     21822     21823     21819     21822     21824     21819     21822     21825
     21820     21819     21821     21820     21819     21822     21821     21819     21822
     21822     21825     21826     21822     21825     21827     21822     21825     21828
     21823     21822     21824     21823     21822     21825     21824     21822     21825
     21825     21828     21829     21825     21828     21830     21825     21828     21831
     21826     21825     21827     21826     21825     21828     21827     21825     21828
     21828     21831     21832     21828     21831     21833     21828     21831     21834
     21829     21828     21830     21829     21828     21831     21830     21828     21831
     21831     21834     21835     21831     21834     21836     21831     21834     21837
     21832     21831     21833     21832     21831     21834     21833     21831     21834
     21834     21837     21838     21834     21837     21839     21834     21837     21840
     21835     21834     21836     21835     21834     21837     21836     21834     21837
     21837     21840     21841     21837     21840     21842     21837     21840     21843
     21838     21837     21839     21838     21837     21840     21839     21837     21840
     21840     21843     21844     21840     21843     21845     21840     21843     21846
     21841     21840     21842     21841     21840     21843     21842     21840     21843
     21843     21846     21847     21843     21846     21848     21843     21846     21849
     21844     21843     21845     21844     21843     21846     21845     21843     21846
     21847     21846     21848     21847     21846     21849     21848     21846     21849
     21850     21852     21853     21850     21852     21854     21850     21852     21855
     21851     21850     21852     21852     21855     21856     21852     21855     21857
     21852     21855     21858     21853     21852     21854     21853     21852     21855
     21854     21852     21855     21855     21858     21859     21855     21858     21860
     21855     21858     21861     21856     21855     21857     21856     21855     21858
     21857     21855     21858     21858     21861     21862     21858     21861     21863
     21858     21861     21864     21859     21858     21860     21859     21858     21861
     21860     21858     21861     21861     21864     21865     21861     21864     21866
     21861     21864     21867     21862     21861     21863     21862     21861     21864
     21863     21861     21864     21864     21867     21868     21864     21867     21869
     21864     21867     21870     21865     21864     21866     21865     21864     21867
     21866     21864     21867     21867     21870     21871     21867     21870     21872
     21867     21870     21873     21868     21867     21869     21868     21867     21870
     21869     21867     21870     21870     21873     21874     21870     21873     21875
     21871     21870     21872     21871     21870     21873     21872     21870     21873
     21873     21875     21876     21873     21875     21877     21874     21873     21875
     21875     21877     21878     21875     21877     21879     21875     21877     21880
     21876     21875     21877     21877     21880     21881     21877     21880     21882
     21877     21880     21883     21878     21877     21879     21878     21877     21880
     21879     21877     21880     21880     21883     21884     21880     21883     21885
     21880     21883     21886     21881     21880     21882     21881     21880     21883
     21882     21880     21883     21883     21886     21887     21883     21886     21888
     21883     21886     21889     21884     21883     21885     21884     21883     21886
     21885     21883     21886     21886     21889     21890     21886     21889     21891
     21886     21889     21892     21887     21886     21888     21887     21886     21889
     21888     21886     21889     21889     21892     21893     21889     21892     21894
     21889     21892     21895     21890     21889     21891     21890     21889     21892
     21891     21889     21892     21892     21895     21896     21892     21895     21897
     21892     21895     21898     21893     21892     21894     21893     21892     21895
     21894     21892     21895     21895     21898     21899     21895     21898     21900
     21895     21898     21901     21896     21895     21897     21896     21895     21898
     21897     21895     21898     21899     21898     21900     21899     21898     21901
     21900     21898     21901     21902     21904     21905     21902     21906     21907
     21902     21906     21908     21902     21906     21909     21902     21948     21945
     21902     21948     21949     21902     21948     21950     21903     21902     21904
     21903     21902     21906     21903     21902     21948     21904     21902     21906
     21904     21902     21948     21906     21902     21948     21906     21909     21910
     21906     21909     21940     21907     21906     21908     21907     21906     21909
     21908     21906     21909     21909     21910     21911     21909     21910     21912
     21909     21940     21938     21909     21940     21941     21909     21940     21945
     21910     21909     21940     21910     21912     21913     21910     21912     21914
     21910     21912     21915     21911     21910     21912     21912     21915     21916
     21912     21915     21917     21912     21915     21938     21913     21912     21914
     21913     21912     21915     21914     21912     21915     21915     21917     21918
     21915     21917     21919     21915     21917     21927     21915     21938     21935
     21915     21938     21939     21915     21938     21940     21916     21915     21917
     21916     21915     21938     21917     21915     21938     21917     21919     21920
     21917     21919     21921     21917     21919     21922     21917     21927     21925
     21917     21927     21928     21917     21927     21932     21918     21917     21919
     21918     21917     21927     21919     21917     21927     21919     21922     21923
     21919     21922     21924     21919     21922     21925     21920     21919     21921
     21920     21919     21922     21921     21919     21922     21922     21925     21926
     21922     21925     21927     21922     21925     21951     21923     21922     21924
     21923     21922     21925     21924     21922     21925     21925     21927     21928
     21925     21927     21932     21925     21951     21952     21925     21951     21953
     21925     21951     21957     21926     21925     21927     21926     21925     21951
     21927     21925     21951     21927     21928     21929     21927     21928     21930
     21927     21928     21931     21927     21932     21933     21927     21932     21934
     21927     21932     21935     21928     21927     21932     21929     21928     21930
     21929     21928     21931     21930     21928     21931     21932     21935     21936
     21932     21935     21937     21932     21935     21938     21933     21932     21934
     21933     21932     21935     21934     21932     21935     21935     21938     21939
     21935     21938     21940     21936     21935     21937     21936     21935     21938
     21937     21935     21938     21938     21940     21941     21938     21940     21945
     21939     21938     21940     21940     21941     21942     21940     21941     21943
     21940     21941     21944     21940     21945     21946     21940     21945     21947
     21940     21945     21948     21941     21940     21945     21942     21941     21943
     21942     21941     21944     21943     21941     21944     21945     21948     21949
     21945     21948     21950     21946     21945     21947     21946     21945     21948
     21947     21945     21948     21949     21948     21950     21951     21953     21954
     21951     21953     21955     21951     21953     21956     21951     21957     21958
     21951     21957     21959     21951     21957     21960     21952     21951     21953
     21952     21951     21957     21953     21951     21957     21954     21953     21955
     21954     21953     21956     21955     21953     21956     21957     21960     21961
     21957     21960     21962     21957     21960     21963     21958     21957     21959
     21958     21957     21960     21959     21957     21960     21960     21963     21964
     21960     21963     21965     21960     21963     21966     21961     21960     21962
     21961     21960     21963     21962     21960     21963     21963     21966     21967
     21963     21966     21968     21963     21966     21972     21964     21963     21965
     21964     21963     21966     21965     21963     21966     21966     21968     21969
     21966     21968     21970     21966     21968     21971     21966     21972     21973
     21966     21972     21974     21966     21972     21975     21967     21966     21968
     21967     21966     21972     21968     21966     21972     21969     21968     21970
     21969     21968     21971     21970     21968     21971     21973     21972     21974
     21973     21972     21975     21974     21972     21975     21976     21980     21981
     21976     21980     21982     21976     21980     21985     21977     21976     21978
     21977     21976     21979     21977     21976     21980     21978     21976     21979
     21978     21976     21980     21979     21976     21980     21980     21982     21983
     21980     21982     21984     21980     21985     21986     21980     21985     21987
     21980     21985     21991     21981     21980     21982     21981     21980     21985
     21982     21980     21985     21983     21982     21984     21985     21991     21988
     21986     21985     21987     21986     21985     21991     21987     21985     21991
     21988     21992     21993     21989     21988     21990     21989     21988     21991
     21989     21988     21992     21990     21988     21991     21990     21988     21992
     21991     21988     21992     21992     21993     21994     21992     21993     21995
     21992     21993     21996     21993     21996     21997     21993     21996     21998
     21993     21996     22004     21994     21993     21995     21994     21993     21996
     21995     21993     21996     21996     21998     21999     21996     22004     22005
     21996     22004     22006     21996     22004     22007     21997     21996     21998
     21997     21996     22004     21998     21996     22004     21998     21999     22000
     21998     21999     22001     21999     22001     22002     21999     22001     22003
     21999     22001     22013     22000     21999     22001     22001     22013     22014
     22001     22013     22015     22001     22013     22016     22002     22001     22003
     22002     22001     22013     22003     22001     22013     22004     22007     22008
     22005     22004     22006     22005     22004     22007     22006     22004     22007
     22007     22008     22009     22007     22008     22010     22008     22010     22011
     22008     22010     22012     22008     22010     22060     22009     22008     22010
     22010     22060     22061     22010     22060     22062     22010     22060     22063
     22011     22010     22012     22011     22010     22060     22012     22010     22060
     22013     22016     22017     22013     22016     22018     22013     22016     22019
     22014     22013     22015     22014     22013     22016     22015     22013     22016
     22016     22019     22020     22016     22019     22021     22017     22016     22018
     22017     22016     22019     22018     22016     22019     22019     22021     22022
     22019     22021     22023     22020     22019     22021     22021     22023     22024
     22021     22023     22025     22021     22023     22026     22022     22021     22023
     22023     22026     22027     22023     22026     22028     22024     22023     22025
     22024     22023     22026     22025     22023     22026     22026     22028     22029
     22026     22028     22030     22027     22026     22028     22028     22030     22031
     22028     22030     22032     22028     22030     22033     22029     22028     22030
     22030     22033     22034     22030     22033     22035     22031     22030     22032
     22031     22030     22033     22032     22030     22033     22033     22035     22036
     22033     22035     22037     22034     22033     22035     22035     22037     22038
     22035     22037     22039     22035     22037     22040     22036     22035     22037
     22037     22040     22041     22037     22040     22042     22038     22037     22039
     22038     22037     22040     22039     22037     22040     22040     22042     22043
     22040     22042     22044     22041     22040     22042     22042     22044     22045
     22042     22044     22046     22042     22044     22047     22043     22042     22044
     22044     22047     22048     22044     22047     22049     22044     22047     22050
     22045     22044     22046     22045     22044     22047     22046     22044     22047
     22047     22050     22051     22047     22050     22052     22047     22050     22053
     22048     22047     22049     22048     22047     22050     22049     22047     22050
     22050     22053     22054     22050     22053     22055     22050     22053     22056
     22051     22050     22052     22051     22050     22053     22052     22050     22053
     22053     22056     22057     22053     22056     22058     22053     22056     22059
     22054     22053     22055     22054     22053     22056     22055     22053     22056
     22057     22056     22058     22057     22056     22059     22058     22056     22059
     22060     22063     22064     22060     22063     22065     22060     22063     22066
     22061     22060     22062     22061     22060     22063     22062     22060     22063
     22063     22066     22067     22063     22066     22068     22063     22066     22069
     22064     22063     22065     22064     22063     22066     22065     22063     22066
     22066     22069     22070     22066     22069     22071     22066     22069     22072
     22067     22066     22068     22067     22066     22069     22068     22066     22069
     22069     22072     22073     22069     22072     22074     22069     22072     22075
     22070     22069     22071     22070     22069     22072     22071     22069     22072
     22072     22075     22076     22072     22075     22077     22072     22075     22078
     22073     22072     22074     22073     22072     22075     22074     22072     22075
     22075     22078     22079     22075     22078     22080     22075     22078     22081
     22076     22075     22077     22076     22075     22078     22077     22075     22078
     22078     22081     22082     22078     22081     22083     22078     22081     22084
     22079     22078     22080     22079     22078     22081     22080     22078     22081
     22081     22084     22085     22081     22084     22086     22081     22084     22087
     22082     22081     22083     22082     22081     22084     22083     22081     22084
     22084     22087     22088     22084     22087     22089     22084     22087     22090
     22085     22084     22086     22085     22084     22087     22086     22084     22087
     22087     22090     22091     22087     22090     22092     22087     22090     22093
     22088     22087     22089     22088     22087     22090     22089     22087     22090
     22090     22093     22094     22090     22093     22095     22090     22093     22096
     22091     22090     22092     22091     22090     22093     22092     22090     22093
     22093     22096     22097     22093     22096     22098     22093     22096     22099
     22094     22093     22095     22094     22093     22096     22095     22093     22096
     22096     22099     22100     22096     22099     22101     22096     22099     22102
     22097     22096     22098     22097     22096     22099     22098     22096     22099
     22099     22102     22103     22099     22102     22104     22099     22102     22105
     22100     22099     22101     22100     22099     22102     22101     22099     22102
     22102     22105     22106     22102     22105     22107     22102     22105     22108
     22103     22102     22104     22103     22102     22105     22104     22102     22105
     22106     22105     22107     22106     22105     22108     22107     22105     22108
     22109     22111     22112     22109     22113     22114     22109     22113     22115
     22109     22113     22116     22109     22155     22152     22109     22155     22156
     22109     22155     22157     22110     22109     22111     22110     22109     22113
     22110     22109     22155     22111     22109     22113     22111     22109     22155
     22113     22109     22155     22113     22116     22117     22113     22116     22147
     22114     22113     22115     22114     22113     22116     22115     22113     22116
     22116     22117     22118     22116     22117     22119     22116     22147     22145
     22116     22147     22148     22116     22147     22152     22117     22116     22147
     22117     22119     22120     22117     22119     22121     22117     22119     22122
     22118     22117     22119     22119     22122     22123     22119     22122     22124
     22119     22122     22145     22120     22119     22121     22120     22119     22122
     22121     22119     22122     22122     22124     22125     22122     22124     22126
     22122     22124     22134     22122     22145     22142     22122     22145     22146
     22122     22145     22147     22123     22122     22124     22123     22122     22145
     22124     22122     22145     22124     22126     22127     22124     22126     22128
     22124     22126     22129     22124     22134     22132     22124     22134     22135
     22124     22134     22139     22125     22124     22126     22125     22124     22134
     22126     22124     22134     22126     22129     22130     22126     22129     22131
     22126     22129     22132     22127     22126     22128     22127     22126     22129
     22128     22126     22129     22129     22132     22133     22129     22132     22134
     22129     22132     22158     22130     22129     22131     22130     22129     22132
     22131     22129     22132     22132     22134     22135     22132     22134     22139
     22132     22158     22159     22132     22158     22160     22132     22158     22164
     22133     22132     22134     22133     22132     22158     22134     22132     22158
     22134     22135     22136     22134     22135     22137     22134     22135     22138
     22134     22139     22140     22134     22139     22141     22134     22139     22142
     22135     22134     22139     22136     22135     22137     22136     22135     22138
     22137     22135     22138     22139     22142     22143     22139     22142     22144
     22139     22142     22145     22140     22139     22141     22140     22139     22142
     22141     22139     22142     22142     22145     22146     22142     22145     22147
     22143     22142     22144     22143     22142     22145     22144     22142     22145
     22145     22147     22148     22145     22147     22152     22146     22145     22147
     22147     22148     22149     22147     22148     22150     22147     22148     22151
     22147     22152     22153     22147     22152     22154     22147     22152     22155
     22148     22147     22152     22149     22148     22150     22149     22148     22151
     22150     22148     22151     22152     22155     22156     22152     22155     22157
     22153     22152     22154     22153     22152     22155     22154     22152     22155
     22156     22155     22157     22158     22160     22161     22158     22160     22162
     22158     22160     22163     22158     22164     22165     22158     22164     22166
     22158     22164     22167     22159     22158     22160     22159     22158     22164
     22160     22158     22164     22161     22160     22162     22161     22160     22163
     22162     22160     22163     22164     22167     22168     22164     22167     22169
     22164     22167     22170     22165     22164     22166     22165     22164     22167
     22166     22164     22167     22167     22170     22171     22167     22170     22172
     22167     22170     22173     22168     22167     22169     22168     22167     22170
     22169     22167     22170     22170     22173     22174     22170     22173     22175
     22170     22173     22179     22171     22170     22172     22171     22170     22173
     22172     22170     22173     22173     22175     22176     22173     22175     22177
     22173     22175     22178     22173     22179     22180     22173     22179     22181
     22173     22179     22182     22174     22173     22175     22174     22173     22179
     22175     22173     22179     22176     22175     22177     22176     22175     22178
     22177     22175     22178     22180     22179     22181     22180     22179     22182
     22181     22179     22182     22183     22184     22185     22183     22184     22186
     22183     22184     22187     22183     22188     22189     22183     22188     22190
     22183     22188     22191     22183     22192     22193     22183     22192     22194
     22183     22192     22195     22183     22196     22197     22183     22196     22198
     22183     22196     22199     22184     22183     22188     22184     22183     22192
     22184     22183     22196     22185     22184     22186     22185     22184     22187
     22186     22184     22187     22188     22183     22192     22188     22183     22196
     22189     22188     22190     22189     22188     22191     22190     22188     22191
     22192     22183     22196     22193     22192     22194     22193     22192     22195
     22194     22192     22195     22196     22199     22200     22196     22199     22201
     22196     22199     22205     22197     22196     22198     22197     22196     22199
     22198     22196     22199     22199     22205     22202     22200     22199     22201
     22200     22199     22205     22201     22199     22205     22202     22206     22207
     22203     22202     22204     22203     22202     22205     22203     22202     22206
     22204     22202     22205     22204     22202     22206     22205     22202     22206
     22206     22207     22208     22206     22207     22209     22206     22207     22210
     22207     22210     22211     22207     22210     22212     22207     22210     22218
     22208     22207     22209     22208     22207     22210     22209     22207     22210
     22210     22212     22213     22210     22218     22219     22210     22218     22220
     22210     22218     22221     22211     22210     22212     22211     22210     22218
     22212     22210     22218     22212     22213     22214     22212     22213     22215
     22213     22215     22216     22213     22215     22217     22213     22215     22227
     22214     22213     22215     22215     22227     22228     22215     22227     22229
     22215     22227     22230     22216     22215     22217     22216     22215     22227
     22217     22215     22227     22218     22221     22222     22219     22218     22220
     22219     22218     22221     22220     22218     22221     22221     22222     22223
     22221     22222     22224     22222     22224     22225     22222     22224     22226
     22222     22224     22272     22223     22222     22224     22224     22272     22273
     22224     22272     22274     22224     22272     22275     22225     22224     22226
     22225     22224     22272     22226     22224     22272     22227     22230     22231
     22227     22230     22232     22227     22230     22233     22228     22227     22229
     22228     22227     22230     22229     22227     22230     22230     22233     22234
     22230     22233     22235     22230     22233     22236     22231     22230     22232
     22231     22230     22233     22232     22230     22233     22233     22236     22237
     22233     22236     22238     22233     22236     22239     22234     22233     22235
     22234     22233     22236     22235     22233     22236     22236     22239     22240
     22236     22239     22241     22236     22239     22242     22237     22236     22238
     22237     22236     22239     22238     22236     22239     22239     22242     22243
     22239     22242     22244     22239     22242     22245     22240     22239     22241
     22240     22239     22242     22241     22239     22242     22242     22245     22246
     22242     22245     22247     22243     22242     22244     22243     22242     22245
     22244     22242     22245     22245     22247     22248     22245     22247     22249
     22246     22245     22247     22247     22249     22250     22247     22249     22251
     22247     22249     22252     22248     22247     22249     22249     22252     22253
     22249     22252     22254     22250     22249     22251     22250     22249     22252
     22251     22249     22252     22252     22254     22255     22252     22254     22256
     22253     22252     22254     22254     22256     22257     22254     22256     22258
     22254     22256     22259     22255     22254     22256     22256     22259     22260
     22256     22259     22261     22256     22259     22262     22257     22256     22258
     22257     22256     22259     22258     22256     22259     22259     22262     22263
     22259     22262     22264     22259     22262     22265     22260     22259     22261
     22260     22259     22262     22261     22259     22262     22262     22265     22266
     22262     22265     22267     22262     22265     22268     22263     22262     22264
     22263     22262     22265     22264     22262     22265     22265     22268     22269
     22265     22268     22270     22265     22268     22271     22266     22265     22267
     22266     22265     22268     22267     22265     22268     22269     22268     22270
     22269     22268     22271     22270     22268     22271     22272     22275     22276
     22272     22275     22277     22272     22275     22278     22273     22272     22274
     22273     22272     22275     22274     22272     22275     22275     22278     22279
     22275     22278     22280     22275     22278     22281     22276     22275     22277
     22276     22275     22278     22277     22275     22278     22278     22281     22282
     22278     22281     22283     22278     22281     22284     22279     22278     22280
     22279     22278     22281     22280     22278     22281     22281     22284     22285
     22281     22284     22286     22281     22284     22287     22282     22281     22283
     22282     22281     22284     22283     22281     22284     22284     22287     22288
     22284     22287     22289     22284     22287     22290     22285     22284     22286
     22285     22284     22287     22286     22284     22287     22287     22290     22291
     22287     22290     22292     22287     22290     22293     22288     22287     22289
     22288     22287     22290     22289     22287     22290     22290     22293     22294
     22290     22293     22295     22290     22293     22296     22291     22290     22292
     22291     22290     22293     22292     22290     22293     22293     22296     22297
     22293     22296     22298     22293     22296     22299     22294     22293     22295
     22294     22293     22296     22295     22293     22296     22296     22299     22300
     22296     22299     22301     22296     22299     22302     22297     22296     22298
     22297     22296     22299     22298     22296     22299     22299     22302     22303
     22299     22302     22304     22299     22302     22305     22300     22299     22301
     22300     22299     22302     22301     22299     22302     22302     22305     22306
     22302     22305     22307     22302     22305     22308     22303     22302     22304
     22303     22302     22305     22304     22302     22305     22305     22308     22309
     22305     22308     22310     22305     22308     22311     22306     22305     22307
     22306     22305     22308     22307     22305     22308     22308     22311     22312
     22308     22311     22313     22308     22311     22314     22309     22308     22310
     22309     22308     22311     22310     22308     22311     22311     22314     22315
     22311     22314     22316     22311     22314     22317     22312     22311     22313
     22312     22311     22314     22313     22311     22314     22314     22317     22318
     22314     22317     22319     22314     22317     22320     22315     22314     22316
     22315     22314     22317     22316     22314     22317     22318     22317     22319
     22318     22317     22320     22319     22317     22320     22322     22321     22323
     22325     22324     22326     22328     22327     22329     22331     22330     22332
     22334     22333     22335     22337     22336     22338     22340     22339     22341
     22343     22342     22344     22346     22345     22347     22349     22348     22350
     22352     22351     22353     22355     22354     22356     22358     22357     22359
     22361     22360     22362     22364     22363     22365     22367     22366     22368
     22370     22369     22371     22373     22372     22374     22376     22375     22377
     22379     22378     22380     22382     22381     22383     22385     22384     22386
     22388     22387     22389     22391     22390     22392     22394     22393     22395
     22397     22396     22398     22400     22399     22401     22403     22402     22404
     22406     22405     22407     22409     22408     22410     22412     22411     22413
     22415     22414     22416     22418     22417     22419     22421     22420     22422
     22424     22423     22425     22427     22426     22428     22430     22429     22431
     22433     22432     22434     22436     22435     22437     22439     22438     22440
     22442     22441     22443     22445     22444     22446     22448     22447     22449
     22451     22450     22452     22454     22453     22455     22457     22456     22458
     22460     22459     22461     22463     22462     22464     22466     22465     22467
     22469     22468     22470     22472     22471     22473     22475     22474     22476
     22478     22477     22479     22481     22480     22482     22484     22483     22485
     22487     22486     22488     22490     22489     22491     22493     22492     22494
     22496     22495     22497     22499     22498     22500     22502     22501     22503
     22505     22504     22506     22508     22507     22509     22511     22510     22512
     22514     22513     22515     22517     22516     22518     22520     22519     22521
     22523     22522     22524     22526     22525     22527     22529     22528     22530
     22532     22531     22533     22535     22534     22536     22538     22537     22539
     22541     22540     22542     22544     22543     22545     22547     22546     22548
     22550     22549     22551     22553     22552     22554     22556     22555     22557
     22559     22558     22560     22562     22561     22563     22565     22564     22566
     22568     22567     22569     22571     22570     22572     22574     22573     22575
     22577     22576     22578     22580     22579     22581     22583     22582     22584
     22586     22585     22587

     61940 !NPHI: dihedrals
         1         5         8         9         1         5         8        39
         1        47        44        39         1        47        44        45
         1        47        44        46         2         1         3         4
         2         1         5         6         2         1         5         7
         2         1         5         8         2         1        47        44
         2         1        47        48         2         1        47        49
         3         1         5         6         3         1         5         7
         3         1         5         8         3         1        47        44
         3         1        47        48         3         1        47        49
         4         3         1         5         4         3         1        47
         5         1        47        44         5         1        47        48
         5         1        47        49         5         8         9        10
         5         8         9        11         5         8        39        37
         5         8        39        40         5         8        39        44
         6         5         1        47         6         5         8         9
         6         5         8        39         7         5         1        47
         7         5         8         9         7         5         8        39
         8         5         1        47         8         9        11        12
         8         9        11        13         8         9        11        14
         8        39        37        14         8        39        37        34
         8        39        37        38         8        39        40        41
         8        39        40        42         8        39        40        43
         8        39        44        45         8        39        44        46
         8        39        44        47         9         8        39        37
         9         8        39        40         9         8        39        44
         9        11        14        15         9        11        14        16
         9        11        14        37        10         9         8        39
        10         9        11        12        10         9        11        13
        10         9        11        14        11         9         8        39
        11        14        16        17        11        14        16        18
        11        14        16        26        11        14        37        34
        11        14        37        38        11        14        37        39
        12        11        14        15        12        11        14        16
        12        11        14        37        13        11        14        15
        13        11        14        16        13        11        14        37
        14        16        18        19        14        16        18        20
        14        16        18        21        14        16        26        24
        14        16        26        27        14        16        26        31
        14        37        34        31        14        37        34        35
        14        37        34        36        14        37        39        40
        14        37        39        44        15        14        16        17
        15        14        16        18        15        14        16        26
        15        14        37        34        15        14        37        38
        15        14        37        39        16        14        37        34
        16        14        37        38        16        14        37        39
        16        18        21        22        16        18        21        23
        16        18        21        24        16        26        24        21
        16        26        24        25        16        26        24        50
        16        26        27        28        16        26        27        29
        16        26        27        30        16        26        31        32
        16        26        31        33        16        26        31        34
        17        16        14        37        17        16        18        19
        17        16        18        20        17        16        18        21
        17        16        26        24        17        16        26        27
        17        16        26        31        18        16        14        37
        18        16        26        24        18        16        26        27
        18        16        26        31        18        21        24        25
        18        21        24        26        18        21        24        50
        19        18        16        26        19        18        21        22
        19        18        21        23        19        18        21        24
        20        18        16        26        20        18        21        22
        20        18        21        23        20        18        21        24
        21        18        16        26        21        24        26        27
        21        24        26        31        21        24        50        51
        21        24        50        52        21        24        50        56
        22        21        24        25        22        21        24        26
        22        21        24        50        23        21        24        25
        23        21        24        26        23        21        24        50
        24        26        27        28        24        26        27        29
        24        26        27        30        24        26        31        32
        24        26        31        33        24        26        31        34
        24        50        52        53        24        50        52        54
        24        50        52        55        24        50        56        57
        24        50        56        58        24        50        56        59
        25        24        26        27        25        24        26        31
        25        24        50        51        25        24        50        52
        25        24        50        56        26        16        14        37
        26        24        50        51        26        24        50        52
        26        24        50        56        26        31        34        35
        26        31        34        36        26        31        34        37
        27        26        24        50        27        26        31        32
        27        26        31        33        27        26        31        34
        28        27        26        31        29        27        26        31
        30        27        26        31        31        26        24        50
        31        34        37        38        31        34        37        39
        32        31        34        35        32        31        34        36
        32        31        34        37        33        31        34        35
        33        31        34        36        33        31        34        37
        34        37        39        40        34        37        39        44
        35        34        37        38        35        34        37        39
        36        34        37        38        36        34        37        39
        37        39        40        41        37        39        40        42
        37        39        40        43        37        39        44        45
        37        39        44        46        37        39        44        47
        38        37        39        40        38        37        39        44
        39        44        47        48        39        44        47        49
        40        39        44        45        40        39        44        46
        40        39        44        47        41        40        39        44
        42        40        39        44        43        40        39        44
        45        44        47        48        45        44        47        49
        46        44        47        48        46        44        47        49
        50        56        59        60        50        56        59        61
        50        56        59        62        51        50        52        53
        51        50        52        54        51        50        52        55
        51        50        56        57        51        50        56        58
        51        50        56        59        52        50        56        57
        52        50        56        58        52        50        56        59
        53        52        50        56        54        52        50        56
        55        52        50        56        56        59        62        63
        56        59        62        64        56        59        62        65
        57        56        59        60        57        56        59        61
        57        56        59        62        58        56        59        60
        58        56        59        61        58        56        59        62
        59        62        65        66        59        62        65        67
        59        62        65        71        60        59        62        63
        60        59        62        64        60        59        62        65
        61        59        62        63        61        59        62        64
        61        59        62        65        62        65        67        68
        62        65        67        69        62        65        67        70
        62        65        71        72        62        65        71        73
        62        65        71        74        63        62        65        66
        63        62        65        67        63        62        65        71
        64        62        65        66        64        62        65        67
        64        62        65        71        66        65        67        68
        66        65        67        69        66        65        67        70
        66        65        71        72        66        65        71        73
        66        65        71        74        67        65        71        72
        67        65        71        73        67        65        71        74
        68        67        65        71        69        67        65        71
        70        67        65        71        75        79        82        83
        75        79        82       113        75       121       118       113
        75       121       118       119        75       121       118       120
        76        75        77        78        76        75        79        80
        76        75        79        81        76        75        79        82
        76        75       121       118        76        75       121       122
        76        75       121       123        77        75        79        80
        77        75        79        81        77        75        79        82
        77        75       121       118        77        75       121       122
        77        75       121       123        78        77        75        79
        78        77        75       121        79        75       121       118
        79        75       121       122        79        75       121       123
        79        82        83        84        79        82        83        85
        79        82       113       111        79        82       113       114
        79        82       113       118        80        79        75       121
        80        79        82        83        80        79        82       113
        81        79        75       121        81        79        82        83
        81        79        82       113        82        79        75       121
        82        83        85        86        82        83        85        87
        82        83        85        88        82       113       111        88
        82       113       111       108        82       113       111       112
        82       113       114       115        82       113       114       116
        82       113       114       117        82       113       118       119
        82       113       118       120        82       113       118       121
        83        82       113       111        83        82       113       114
        83        82       113       118        83        85        88        89
        83        85        88        90        83        85        88       111
        84        83        82       113        84        83        85        86
        84        83        85        87        84        83        85        88
        85        83        82       113        85        88        90        91
        85        88        90        92        85        88        90       100
        85        88       111       108        85        88       111       112
        85        88       111       113        86        85        88        89
        86        85        88        90        86        85        88       111
        87        85        88        89        87        85        88        90
        87        85        88       111        88        90        92        93
        88        90        92        94        88        90        92        95
        88        90       100        98        88        90       100       101
        88        90       100       105        88       111       108       105
        88       111       108       109        88       111       108       110
        88       111       113       114        88       111       113       118
        89        88        90        91        89        88        90        92
        89        88        90       100        89        88       111       108
        89        88       111       112        89        88       111       113
        90        88       111       108        90        88       111       112
        90        88       111       113        90        92        95        96
        90        92        95        97        90        92        95        98
        90       100        98        95        90       100        98        99
        90       100        98       124        90       100       101       102
        90       100       101       103        90       100       101       104
        90       100       105       106        90       100       105       107
        90       100       105       108        91        90        88       111
        91        90        92        93        91        90        92        94
        91        90        92        95        91        90       100        98
        91        90       100       101        91        90       100       105
        92        90        88       111        92        90       100        98
        92        90       100       101        92        90       100       105
        92        95        98        99        92        95        98       100
        92        95        98       124        93        92        90       100
        93        92        95        96        93        92        95        97
        93        92        95        98        94        92        90       100
        94        92        95        96        94        92        95        97
        94        92        95        98        95        92        90       100
        95        98       100       101        95        98       100       105
        95        98       124       125        95        98       124       126
        95        98       124       130        96        95        98        99
        96        95        98       100        96        95        98       124
        97        95        98        99        97        95        98       100
        97        95        98       124        98       100       101       102
        98       100       101       103        98       100       101       104
        98       100       105       106        98       100       105       107
        98       100       105       108        98       124       126       127
        98       124       126       128        98       124       126       129
        98       124       130       131        98       124       130       132
        98       124       130       133        99        98       100       101
        99        98       100       105        99        98       124       125
        99        98       124       126        99        98       124       130
       100        90        88       111       100        98       124       125
       100        98       124       126       100        98       124       130
       100       105       108       109       100       105       108       110
       100       105       108       111       101       100        98       124
       101       100       105       106       101       100       105       107
       101       100       105       108       102       101       100       105
       103       101       100       105       104       101       100       105
       105       100        98       124       105       108       111       112
       105       108       111       113       106       105       108       109
       106       105       108       110       106       105       108       111
       107       105       108       109       107       105       108       110
       107       105       108       111       108       111       113       114
       108       111       113       118       109       108       111       112
       109       108       111       113       110       108       111       112
       110       108       111       113       111       113       114       115
       111       113       114       116       111       113       114       117
       111       113       118       119       111       113       118       120
       111       113       118       121       112       111       113       114
       112       111       113       118       113       118       121       122
       113       118       121       123       114       113       118       119
       114       113       118       120       114       113       118       121
       115       114       113       118       116       114       113       118
       117       114       113       118       119       118       121       122
       119       118       121       123       120       118       121       122
       120       118       121       123       124       130       133       134
       124       130       133       135       124       130       133       136
       125       124       126       127       125       124       126       128
       125       124       126       129       125       124       130       131
       125       124       130       132       125       124       130       133
       126       124       130       131       126       124       130       132
       126       124       130       133       127       126       124       130
       128       126       124       130       129       126       124       130
       130       133       136       137       130       133       136       138
       130       133       136       139       131       130       133       134
       131       130       133       135       131       130       133       136
       132       130       133       134       132       130       133       135
       132       130       133       136       133       136       139       140
       133       136       139       141       133       136       139       145
       134       133       136       137       134       133       136       138
       134       133       136       139       135       133       136       137
       135       133       136       138       135       133       136       139
       136       139       141       142       136       139       141       143
       136       139       141       144       136       139       145       146
       136       139       145       147       136       139       145       148
       137       136       139       140       137       136       139       141
       137       136       139       145       138       136       139       140
       138       136       139       141       138       136       139       145
       140       139       141       142       140       139       141       143
       140       139       141       144       140       139       145       146
       140       139       145       147       140       139       145       148
       141       139       145       146       141       139       145       147
       141       139       145       148       142       141       139       145
       143       141       139       145       144       141       139       145
       149       150       165       166       149       150       165       167
       149       150       165       171       150       149       153       154
       150       149       153       155       150       149       153       156
       150       149       157       158       150       149       157       159
       150       149       157       160       150       149       161       162
       150       149       161       163       150       149       161       164
       150       165       171       168       151       150       149       153
       151       150       149       157       151       150       149       161
       151       150       165       166       151       150       165       167
       151       150       165       171       152       150       149       153
       152       150       149       157       152       150       149       161
       152       150       165       166       152       150       165       167
       152       150       165       171       153       149       150       165
       153       149       157       158       153       149       157       159
       153       149       157       160       153       149       161       162
       153       149       161       163       153       149       161       164
       154       153       149       157       154       153       149       161
       155       153       149       157       155       153       149       161
       156       153       149       157       156       153       149       161
       157       149       150       165       157       149       161       162
       157       149       161       163       157       149       161       164
       158       157       149       161       159       157       149       161
       160       157       149       161       161       149       150       165
       165       171       168       169       165       171       168       170
       165       171       168       172       166       165       171       168
       167       165       171       168       168       172       173       174
       168       172       173       175       168       172       173       176
       169       168       172       173       170       168       172       173
       171       168       172       173       172       173       176       177
       172       173       176       178       172       173       176       184
       173       176       178       179       173       176       184       185
       173       176       184       186       173       176       184       187
       174       173       176       177       174       173       176       178
       174       173       176       184       175       173       176       177
       175       173       176       178       175       173       176       184
       176       178       179       180       176       178       179       181
       176       184       187       188       177       176       178       179
       177       176       184       185       177       176       184       186
       177       176       184       187       178       176       184       185
       178       176       184       186       178       176       184       187
       178       179       181       182       178       179       181       183
       178       179       181       193       179       178       176       184
       179       181       193       194       179       181       193       195
       179       181       193       196       180       179       181       182
       180       179       181       183       180       179       181       193
       181       193       196       197       181       193       196       198
       181       193       196       199       182       181       193       194
       182       181       193       195       182       181       193       196
       183       181       193       194       183       181       193       195
       183       181       193       196       184       187       188       189
       184       187       188       190       185       184       187       188
       186       184       187       188       187       188       190       191
       187       188       190       192       187       188       190       240
       188       190       240       241       188       190       240       242
       188       190       240       243       189       188       190       191
       189       188       190       192       189       188       190       240
       190       240       243       244       190       240       243       245
       190       240       243       246       191       190       240       241
       191       190       240       242       191       190       240       243
       192       190       240       241       192       190       240       242
       192       190       240       243       193       196       199       200
       193       196       199       201       194       193       196       197
       194       193       196       198       194       193       196       199
       195       193       196       197       195       193       196       198
       195       193       196       199       196       199       201       202
       196       199       201       203       197       196       199       200
       197       196       199       201       198       196       199       200
       198       196       199       201       199       201       203       204
       199       201       203       205       199       201       203       206
       200       199       201       202       200       199       201       203
       201       203       206       207       201       203       206       208
       202       201       203       204       202       201       203       205
       202       201       203       206       203       206       208       209
       203       206       208       210       204       203       206       207
       204       203       206       208       205       203       206       207
       205       203       206       208       206       208       210       211
       206       208       210       212       206       208       210       213
       207       206       208       209       207       206       208       210
       208       210       213       214       208       210       213       215
       209       208       210       211       209       208       210       212
       209       208       210       213       210       213       215       216
       210       213       215       217       211       210       213       214
       211       210       213       215       212       210       213       214
       212       210       213       215       213       215       217       218
       213       215       217       219       213       215       217       220
       214       213       215       216       214       213       215       217
       215       217       220       221       215       217       220       222
       216       215       217       218       216       215       217       219
       216       215       217       220       217       220       222       223
       217       220       222       224       218       217       220       221
       218       217       220       222       219       217       220       221
       219       217       220       222       220       222       224       225
       220       222       224       226       220       222       224       227
       221       220       222       223       221       220       222       224
       222       224       227       228       222       224       227       229
       222       224       227       230       223       222       224       225
       223       222       224       226       223       222       224       227
       224       227       230       231       224       227       230       232
       224       227       230       233       225       224       227       228
       225       224       227       229       225       224       227       230
       226       224       227       228       226       224       227       229
       226       224       227       230       227       230       233       234
       227       230       233       235       227       230       233       236
       228       227       230       231       228       227       230       232
       228       227       230       233       229       227       230       231
       229       227       230       232       229       227       230       233
       230       233       236       237       230       233       236       238
       230       233       236       239       231       230       233       234
       231       230       233       235       231       230       233       236
       232       230       233       234       232       230       233       235
       232       230       233       236       234       233       236       237
       234       233       236       238       234       233       236       239
       235       233       236       237       235       233       236       238
       235       233       236       239       240       243       246       247
       240       243       246       248       240       243       246       249
       241       240       243       244       241       240       243       245
       241       240       243       246       242       240       243       244
       242       240       243       245       242       240       243       246
       243       246       249       250       243       246       249       251
       243       246       249       252       244       243       246       247
       244       243       246       248       244       243       246       249
       245       243       246       247       245       243       246       248
       245       243       246       249       246       249       252       253
       246       249       252       254       246       249       252       255
       247       246       249       250       247       246       249       251
       247       246       249       252       248       246       249       250
       248       246       249       251       248       246       249       252
       249       252       255       256       249       252       255       257
       249       252       255       258       250       249       252       253
       250       249       252       254       250       249       252       255
       251       249       252       253       251       249       252       254
       251       249       252       255       252       255       258       259
       252       255       258       260       252       255       258       261
       253       252       255       256       253       252       255       257
       253       252       255       258       254       252       255       256
       254       252       255       257       254       252       255       258
       255       258       261       262       255       258       261       263
       255       258       261       264       256       255       258       259
       256       255       258       260       256       255       258       261
       257       255       258       259       257       255       258       260
       257       255       258       261       258       261       264       265
       258       261       264       266       258       261       264       267
       259       258       261       262       259       258       261       263
       259       258       261       264       260       258       261       262
       260       258       261       263       260       258       261       264
       261       264       267       268       261       264       267       269
       261       264       267       270       262       261       264       265
       262       261       264       266       262       261       264       267
       263       261       264       265       263       261       264       266
       263       261       264       267       264       267       270       271
       264       267       270       272       264       267       270       273
       265       264       267       268       265       264       267       269
       265       264       267       270       266       264       267       268
       266       264       267       269       266       264       267       270
       267       270       273       274       267       270       273       275
       267       270       273       276       268       267       270       271
       268       267       270       272       268       267       270       273
       269       267       270       271       269       267       270       272
       269       267       270       273       270       273       276       277
       270       273       276       278       270       273       276       279
       271       270       273       274       271       270       273       275
       271       270       273       276       272       270       273       274
       272       270       273       275       272       270       273       276
       273       276       279       280       273       276       279       281
       273       276       279       282       274       273       276       277
       274       273       276       278       274       273       276       279
       275       273       276       277       275       273       276       278
       275       273       276       279       276       279       282       283
       276       279       282       284       276       279       282       285
       277       276       279       280       277       276       279       281
       277       276       279       282       278       276       279       280
       278       276       279       281       278       276       279       282
       279       282       285       286       279       282       285       287
       279       282       285       288       280       279       282       283
       280       279       282       284       280       279       282       285
       281       279       282       283       281       279       282       284
       281       279       282       285       283       282       285       286
       283       282       285       287       283       282       285       288
       284       282       285       286       284       282       285       287
       284       282       285       288       289       293       296       297
       289       293       296       327       289       335       332       327
       289       335       332       333       289       335       332       334
       290       289       291       292       290       289       293       294
       290       289       293       295       290       289       293       296
       290       289       335       332       290       289       335       336
       290       289       335       337       291       289       293       294
       291       289       293       295       291       289       293       296
       291       289       335       332       291       289       335       336
       291       289       335       337       292       291       289       293
       292       291       289       335       293       289       335       332
       293       289       335       336       293       289       335       337
       293       296       297       298       293       296       297       299
       293       296       327       325       293       296       327       328
       293       296       327       332       294       293       289       335
       294       293       296       297       294       293       296       327
       295       293       289       335       295       293       296       297
       295       293       296       327       296       293       289       335
       296       297       299       300       296       297       299       301
       296       297       299       302       296       327       325       302
       296       327       325       322       296       327       325       326
       296       327       328       329       296       327       328       330
       296       327       328       331       296       327       332       333
       296       327       332       334       296       327       332       335
       297       296       327       325       297       296       327       328
       297       296       327       332       297       299       302       303
       297       299       302       304       297       299       302       325
       298       297       296       327       298       297       299       300
       298       297       299       301       298       297       299       302
       299       297       296       327       299       302       304       305
       299       302       304       306       299       302       304       314
       299       302       325       322       299       302       325       326
       299       302       325       327       300       299       302       303
       300       299       302       304       300       299       302       325
       301       299       302       303       301       299       302       304
       301       299       302       325       302       304       306       307
       302       304       306       308       302       304       306       309
       302       304       314       312       302       304       314       315
       302       304       314       319       302       325       322       319
       302       325       322       323       302       325       322       324
       302       325       327       328       302       325       327       332
       303       302       304       305       303       302       304       306
       303       302       304       314       303       302       325       322
       303       302       325       326       303       302       325       327
       304       302       325       322       304       302       325       326
       304       302       325       327       304       306       309       310
       304       306       309       311       304       306       309       312
       304       314       312       309       304       314       312       313
       304       314       312       338       304       314       315       316
       304       314       315       317       304       314       315       318
       304       314       319       320       304       314       319       321
       304       314       319       322       305       304       302       325
       305       304       306       307       305       304       306       308
       305       304       306       309       305       304       314       312
       305       304       314       315       305       304       314       319
       306       304       302       325       306       304       314       312
       306       304       314       315       306       304       314       319
       306       309       312       313       306       309       312       314
       306       309       312       338       307       306       304       314
       307       306       309       310       307       306       309       311
       307       306       309       312       308       306       304       314
       308       306       309       310       308       306       309       311
       308       306       309       312       309       306       304       314
       309       312       314       315       309       312       314       319
       309       312       338       339       309       312       338       340
       309       312       338       344       310       309       312       313
       310       309       312       314       310       309       312       338
       311       309       312       313       311       309       312       314
       311       309       312       338       312       314       315       316
       312       314       315       317       312       314       315       318
       312       314       319       320       312       314       319       321
       312       314       319       322       312       338       340       341
       312       338       340       342       312       338       340       343
       312       338       344       345       312       338       344       346
       312       338       344       347       313       312       314       315
       313       312       314       319       313       312       338       339
       313       312       338       340       313       312       338       344
       314       304       302       325       314       312       338       339
       314       312       338       340       314       312       338       344
       314       319       322       323       314       319       322       324
       314       319       322       325       315       314       312       338
       315       314       319       320       315       314       319       321
       315       314       319       322       316       315       314       319
       317       315       314       319       318       315       314       319
       319       314       312       338       319       322       325       326
       319       322       325       327       320       319       322       323
       320       319       322       324       320       319       322       325
       321       319       322       323       321       319       322       324
       321       319       322       325       322       325       327       328
       322       325       327       332       323       322       325       326
       323       322       325       327       324       322       325       326
       324       322       325       327       325       327       328       329
       325       327       328       330       325       327       328       331
       325       327       332       333       325       327       332       334
       325       327       332       335       326       325       327       328
       326       325       327       332       327       332       335       336
       327       332       335       337       328       327       332       333
       328       327       332       334       328       327       332       335
       329       328       327       332       330       328       327       332
       331       328       327       332       333       332       335       336
       333       332       335       337       334       332       335       336
       334       332       335       337       338       344       347       348
       338       344       347       349       338       344       347       350
       339       338       340       341       339       338       340       342
       339       338       340       343       339       338       344       345
       339       338       344       346       339       338       344       347
       340       338       344       345       340       338       344       346
       340       338       344       347       341       340       338       344
       342       340       338       344       343       340       338       344
       344       347       350       351       344       347       350       352
       344       347       350       353       345       344       347       348
       345       344       347       349       345       344       347       350
       346       344       347       348       346       344       347       349
       346       344       347       350       347       350       353       354
       347       350       353       355       347       350       353       359
       348       347       350       351       348       347       350       352
       348       347       350       353       349       347       350       351
       349       347       350       352       349       347       350       353
       350       353       355       356       350       353       355       357
       350       353       355       358       350       353       359       360
       350       353       359       361       350       353       359       362
       351       350       353       354       351       350       353       355
       351       350       353       359       352       350       353       354
       352       350       353       355       352       350       353       359
       354       353       355       356       354       353       355       357
       354       353       355       358       354       353       359       360
       354       353       359       361       354       353       359       362
       355       353       359       360       355       353       359       361
       355       353       359       362       356       355       353       359
       357       355       353       359       358       355       353       359
       363       376       379       380       363       376       379       381
       363       376       379       385       364       363       368       369
       364       363       368       370       364       363       368       371
       364       363       372       373       364       363       372       374
       364       363       372       375       364       363       376       377
       364       363       376       378       364       363       376       379
       365       364       363       368       365       364       363       372
       365       364       363       376       366       364       363       368
       366       364       363       372       366       364       363       376
       367       364       363       368       367       364       363       372
       367       364       363       376       368       363       372       373
       368       363       372       374       368       363       372       375
       368       363       376       377       368       363       376       378
       368       363       376       379       369       368       363       372
       369       368       363       376       370       368       363       372
       370       368       363       376       371       368       363       372
       371       368       363       376       372       363       376       377
       372       363       376       378       372       363       376       379
       373       372       363       376       374       372       363       376
       375       372       363       376       376       379       385       382
       377       376       379       380       377       376       379       381
       377       376       379       385       378       376       379       380
       378       376       379       381       378       376       379       385
       379       385       382       383       379       385       382       384
       379       385       382       386       380       379       385       382
       381       379       385       382       382       386       387       388
       382       386       387       389       382       386       387       390
       383       382       386       387       384       382       386       387
       385       382       386       387       386       387       390       391
       386       387       390       392       386       387       390       398
       387       390       392       393       387       390       398       399
       387       390       398       400       387       390       398       401
       388       387       390       391       388       387       390       392
       388       387       390       398       389       387       390       391
       389       387       390       392       389       387       390       398
       390       392       393       394       390       392       393       395
       390       398       401       402       391       390       392       393
       391       390       398       399       391       390       398       400
       391       390       398       401       392       390       398       399
       392       390       398       400       392       390       398       401
       392       393       395       396       392       393       395       397
       392       393       395       407       393       392       390       398
       393       395       407       408       393       395       407       409
       393       395       407       410       394       393       395       396
       394       393       395       397       394       393       395       407
       395       407       410       411       395       407       410       412
       395       407       410       413       396       395       407       408
       396       395       407       409       396       395       407       410
       397       395       407       408       397       395       407       409
       397       395       407       410       398       401       402       403
       398       401       402       404       399       398       401       402
       400       398       401       402       401       402       404       405
       401       402       404       406       401       402       404       452
       402       404       452       453       402       404       452       454
       402       404       452       455       403       402       404       405
       403       402       404       406       403       402       404       452
       404       452       455       456       404       452       455       457
       404       452       455       458       405       404       452       453
       405       404       452       454       405       404       452       455
       406       404       452       453       406       404       452       454
       406       404       452       455       407       410       413       414
       407       410       413       415       407       410       413       416
       408       407       410       411       408       407       410       412
       408       407       410       413       409       407       410       411
       409       407       410       412       409       407       410       413
       410       413       416       417       410       413       416       418
       410       413       416       419       411       410       413       414
       411       410       413       415       411       410       413       416
       412       410       413       414       412       410       413       415
       412       410       413       416       413       416       419       420
       413       416       419       421       413       416       419       422
       414       413       416       417       414       413       416       418
       414       413       416       419       415       413       416       417
       415       413       416       418       415       413       416       419
       416       419       422       423       416       419       422       424
       416       419       422       425       417       416       419       420
       417       416       419       421       417       416       419       422
       418       416       419       420       418       416       419       421
       418       416       419       422       419       422       425       426
       419       422       425       427       420       419       422       423
       420       419       422       424       420       419       422       425
       421       419       422       423       421       419       422       424
       421       419       422       425       422       425       427       428
       422       425       427       429       423       422       425       426
       423       422       425       427       424       422       425       426
       424       422       425       427       425       427       429       430
       425       427       429       431       425       427       429       432
       426       425       427       428       426       425       427       429
       427       429       432       433       427       429       432       434
       428       427       429       430       428       427       429       431
       428       427       429       432       429       432       434       435
       429       432       434       436       430       429       432       433
       430       429       432       434       431       429       432       433
       431       429       432       434       432       434       436       437
       432       434       436       438       432       434       436       439
       433       432       434       435       433       432       434       436
       434       436       439       440       434       436       439       441
       434       436       439       442       435       434       436       437
       435       434       436       438       435       434       436       439
       436       439       442       443       436       439       442       444
       436       439       442       445       437       436       439       440
       437       436       439       441       437       436       439       442
       438       436       439       440       438       436       439       441
       438       436       439       442       439       442       445       446
       439       442       445       447       439       442       445       448
       440       439       442       443       440       439       442       444
       440       439       442       445       441       439       442       443
       441       439       442       444       441       439       442       445
       442       445       448       449       442       445       448       450
       442       445       448       451       443       442       445       446
       443       442       445       447       443       442       445       448
       444       442       445       446       444       442       445       447
       444       442       445       448       446       445       448       449
       446       445       448       450       446       445       448       451
       447       445       448       449       447       445       448       450
       447       445       448       451       452       455       458       459
       452       455       458       460       452       455       458       461
       453       452       455       456       453       452       455       457
       453       452       455       458       454       452       455       456
       454       452       455       457       454       452       455       458
       455       458       461       462       455       458       461       463
       455       458       461       464       456       455       458       459
       456       455       458       460       456       455       458       461
       457       455       458       459       457       455       458       460
       457       455       458       461       458       461       464       465
       458       461       464       466       458       461       464       467
       459       458       461       462       459       458       461       463
       459       458       461       464       460       458       461       462
       460       458       461       463       460       458       461       464
       461       464       467       468       461       464       467       469
       461       464       467       470       462       461       464       465
       462       461       464       466       462       461       464       467
       463       461       464       465       463       461       464       466
       463       461       464       467       464       467       470       471
       464       467       470       472       464       467       470       473
       465       464       467       468       465       464       467       469
       465       464       467       470       466       464       467       468
       466       464       467       469       466       464       467       470
       467       470       473       474       467       470       473       475
       467       470       473       476       468       467       470       471
       468       467       470       472       468       467       470       473
       469       467       470       471       469       467       470       472
       469       467       470       473       470       473       476       477
       470       473       476       478       470       473       476       479
       471       470       473       474       471       470       473       475
       471       470       473       476       472       470       473       474
       472       470       473       475       472       470       473       476
       473       476       479       480       473       476       479       481
       473       476       479       482       474       473       476       477
       474       473       476       478       474       473       476       479
       475       473       476       477       475       473       476       478
       475       473       476       479       476       479       482       483
       476       479       482       484       476       479       482       485
       477       476       479       480       477       476       479       481
       477       476       479       482       478       476       479       480
       478       476       479       481       478       476       479       482
       479       482       485       486       479       482       485       487
       479       482       485       488       480       479       482       483
       480       479       482       484       480       479       482       485
       481       479       482       483       481       479       482       484
       481       479       482       485       482       485       488       489
       482       485       488       490       482       485       488       491
       483       482       485       486       483       482       485       487
       483       482       485       488       484       482       485       486
       484       482       485       487       484       482       485       488
       485       488       491       492       485       488       491       493
       485       488       491       494       486       485       488       489
       486       485       488       490       486       485       488       491
       487       485       488       489       487       485       488       490
       487       485       488       491       488       491       494       495
       488       491       494       496       488       491       494       497
       489       488       491       492       489       488       491       493
       489       488       491       494       490       488       491       492
       490       488       491       493       490       488       491       494
       491       494       497       498       491       494       497       499
       491       494       497       500       492       491       494       495
       492       491       494       496       492       491       494       497
       493       491       494       495       493       491       494       496
       493       491       494       497       495       494       497       498
       495       494       497       499       495       494       497       500
       496       494       497       498       496       494       497       499
       496       494       497       500       501       505       508       509
       501       505       508       539       501       547       544       539
       501       547       544       545       501       547       544       546
       502       501       503       504       502       501       505       506
       502       501       505       507       502       501       505       508
       502       501       547       544       502       501       547       548
       502       501       547       549       503       501       505       506
       503       501       505       507       503       501       505       508
       503       501       547       544       503       501       547       548
       503       501       547       549       504       503       501       505
       504       503       501       547       505       501       547       544
       505       501       547       548       505       501       547       549
       505       508       509       510       505       508       509       511
       505       508       539       537       505       508       539       540
       505       508       539       544       506       505       501       547
       506       505       508       509       506       505       508       539
       507       505       501       547       507       505       508       509
       507       505       508       539       508       505       501       547
       508       509       511       512       508       509       511       513
       508       509       511       514       508       539       537       514
       508       539       537       534       508       539       537       538
       508       539       540       541       508       539       540       542
       508       539       540       543       508       539       544       545
       508       539       544       546       508       539       544       547
       509       508       539       537       509       508       539       540
       509       508       539       544       509       511       514       515
       509       511       514       516       509       511       514       537
       510       509       508       539       510       509       511       512
       510       509       511       513       510       509       511       514
       511       509       508       539       511       514       516       517
       511       514       516       518       511       514       516       526
       511       514       537       534       511       514       537       538
       511       514       537       539       512       511       514       515
       512       511       514       516       512       511       514       537
       513       511       514       515       513       511       514       516
       513       511       514       537       514       516       518       519
       514       516       518       520       514       516       518       521
       514       516       526       524       514       516       526       527
       514       516       526       531       514       537       534       531
       514       537       534       535       514       537       534       536
       514       537       539       540       514       537       539       544
       515       514       516       517       515       514       516       518
       515       514       516       526       515       514       537       534
       515       514       537       538       515       514       537       539
       516       514       537       534       516       514       537       538
       516       514       537       539       516       518       521       522
       516       518       521       523       516       518       521       524
       516       526       524       521       516       526       524       525
       516       526       524       550       516       526       527       528
       516       526       527       529       516       526       527       530
       516       526       531       532       516       526       531       533
       516       526       531       534       517       516       514       537
       517       516       518       519       517       516       518       520
       517       516       518       521       517       516       526       524
       517       516       526       527       517       516       526       531
       518       516       514       537       518       516       526       524
       518       516       526       527       518       516       526       531
       518       521       524       525       518       521       524       526
       518       521       524       550       519       518       516       526
       519       518       521       522       519       518       521       523
       519       518       521       524       520       518       516       526
       520       518       521       522       520       518       521       523
       520       518       521       524       521       518       516       526
       521       524       526       527       521       524       526       531
       521       524       550       551       521       524       550       552
       521       524       550       556       522       521       524       525
       522       521       524       526       522       521       524       550
       523       521       524       525       523       521       524       526
       523       521       524       550       524       526       527       528
       524       526       527       529       524       526       527       530
       524       526       531       532       524       526       531       533
       524       526       531       534       524       550       552       553
       524       550       552       554       524       550       552       555
       524       550       556       557       524       550       556       558
       524       550       556       559       525       524       526       527
       525       524       526       531       525       524       550       551
       525       524       550       552       525       524       550       556
       526       516       514       537       526       524       550       551
       526       524       550       552       526       524       550       556
       526       531       534       535       526       531       534       536
       526       531       534       537       527       526       524       550
       527       526       531       532       527       526       531       533
       527       526       531       534       528       527       526       531
       529       527       526       531       530       527       526       531
       531       526       524       550       531       534       537       538
       531       534       537       539       532       531       534       535
       532       531       534       536       532       531       534       537
       533       531       534       535       533       531       534       536
       533       531       534       537       534       537       539       540
       534       537       539       544       535       534       537       538
       535       534       537       539       536       534       537       538
       536       534       537       539       537       539       540       541
       537       539       540       542       537       539       540       543
       537       539       544       545       537       539       544       546
       537       539       544       547       538       537       539       540
       538       537       539       544       539       544       547       548
       539       544       547       549       540       539       544       545
       540       539       544       546       540       539       544       547
       541       540       539       544       542       540       539       544
       543       540       539       544       545       544       547       548
       545       544       547       549       546       544       547       548
       546       544       547       549       550       556       559       560
       550       556       559       561       550       556       559       562
       551       550       552       553       551       550       552       554
       551       550       552       555       551       550       556       557
       551       550       556       558       551       550       556       559
       552       550       556       557       552       550       556       558
       552       550       556       559       553       552       550       556
       554       552       550       556       555       552       550       556
       556       559       562       563       556       559       562       564
       556       559       562       565       557       556       559       560
       557       556       559       561       557       556       559       562
       558       556       559       560       558       556       559       561
       558       556       559       562       559       562       565       566
       559       562       565       567       559       562       565       571
       560       559       562       563       560       559       562       564
       560       559       562       565       561       559       562       563
       561       559       562       564       561       559       562       565
       562       565       567       568       562       565       567       569
       562       565       567       570       562       565       571       572
       562       565       571       573       562       565       571       574
       563       562       565       566       563       562       565       567
       563       562       565       571       564       562       565       566
       564       562       565       567       564       562       565       571
       566       565       567       568       566       565       567       569
       566       565       567       570       566       565       571       572
       566       565       571       573       566       565       571       574
       567       565       571       572       567       565       571       573
       567       565       571       574       568       567       565       571
       569       567       565       571       570       567       565       571
       575       579       582       583       575       579       582       584
       575       579       582       588       576       575       579       580
       576       575       579       581       576       575       579       582
       577       575       579       580       577       575       579       581
       577       575       579       582       578       575       579       580
       578       575       579       581       578       575       579       582
       579       582       588       585       580       579       582       583
       580       579       582       584       580       579       582       588
       581       579       582       583       581       579       582       584
       581       579       582       588       582       588       585       586
       582       588       585       587       582       588       585       589
       583       582       588       585       584       582       588       585
       585       589       590       591       585       589       590       592
       585       589       590       593       586       585       589       590
       587       585       589       590       588       585       589       590
       589       590       593       594       589       590       593       595
       589       590       593       601       590       593       595       596
       590       593       601       602       590       593       601       603
       590       593       601       604       591       590       593       594
       591       590       593       595       591       590       593       601
       592       590       593       594       592       590       593       595
       592       590       593       601       593       595       596       597
       593       595       596       598       593       601       604       605
       594       593       595       596       594       593       601       602
       594       593       601       603       594       593       601       604
       595       593       601       602       595       593       601       603
       595       593       601       604       595       596       598       599
       595       596       598       600       595       596       598       610
       596       595       593       601       596       598       610       611
       596       598       610       612       596       598       610       613
       597       596       598       599       597       596       598       600
       597       596       598       610       598       610       613       614
       598       610       613       615       598       610       613       616
       599       598       610       611       599       598       610       612
       599       598       610       613       600       598       610       611
       600       598       610       612       600       598       610       613
       601       604       605       606       601       604       605       607
       602       601       604       605       603       601       604       605
       604       605       607       608       604       605       607       609
       604       605       607       657       605       607       657       658
       605       607       657       659       605       607       657       660
       606       605       607       608       606       605       607       609
       606       605       607       657       607       657       660       661
       607       657       660       662       607       657       660       663
       608       607       657       658       608       607       657       659
       608       607       657       660       609       607       657       658
       609       607       657       659       609       607       657       660
       610       613       616       617       610       613       616       618
       611       610       613       614       611       610       613       615
       611       610       613       616       612       610       613       614
       612       610       613       615       612       610       613       616
       613       616       618       619       613       616       618       620
       614       613       616       617       614       613       616       618
       615       613       616       617       615       613       616       618
       616       618       620       621       616       618       620       622
       616       618       620       623       617       616       618       619
       617       616       618       620       618       620       623       624
       618       620       623       625       619       618       620       621
       619       618       620       622       619       618       620       623
       620       623       625       626       620       623       625       627
       621       620       623       624       621       620       623       625
       622       620       623       624       622       620       623       625
       623       625       627       628       623       625       627       629
       623       625       627       630       624       623       625       626
       624       623       625       627       625       627       630       631
       625       627       630       632       626       625       627       628
       626       625       627       629       626       625       627       630
       627       630       632       633       627       630       632       634
       628       627       630       631       628       627       630       632
       629       627       630       631       629       627       630       632
       630       632       634       635       630       632       634       636
       630       632       634       637       631       630       632       633
       631       630       632       634       632       634       637       638
       632       634       637       639       633       632       634       635
       633       632       634       636       633       632       634       637
       634       637       639       640       634       637       639       641
       635       634       637       638       635       634       637       639
       636       634       637       638       636       634       637       639
       637       639       641       642       637       639       641       643
       637       639       641       644       638       637       639       640
       638       637       639       641       639       641       644       645
       639       641       644       646       639       641       644       647
       640       639       641       642       640       639       641       643
       640       639       641       644       641       644       647       648
       641       644       647       649       641       644       647       650
       642       641       644       645       642       641       644       646
       642       641       644       647       643       641       644       645
       643       641       644       646       643       641       644       647
       644       647       650       651       644       647       650       652
       644       647       650       653       645       644       647       648
       645       644       647       649       645       644       647       650
       646       644       647       648       646       644       647       649
       646       644       647       650       647       650       653       654
       647       650       653       655       647       650       653       656
       648       647       650       651       648       647       650       652
       648       647       650       653       649       647       650       651
       649       647       650       652       649       647       650       653
       651       650       653       654       651       650       653       655
       651       650       653       656       652       650       653       654
       652       650       653       655       652       650       653       656
       657       660       663       664       657       660       663       665
       657       660       663       666       658       657       660       661
       658       657       660       662       658       657       660       663
       659       657       660       661       659       657       660       662
       659       657       660       663       660       663       666       667
       660       663       666       668       660       663       666       669
       661       660       663       664       661       660       663       665
       661       660       663       666       662       660       663       664
       662       660       663       665       662       660       663       666
       663       666       669       670       663       666       669       671
       663       666       669       672       664       663       666       667
       664       663       666       668       664       663       666       669
       665       663       666       667       665       663       666       668
       665       663       666       669       666       669       672       673
       666       669       672       674       666       669       672       675
       667       666       669       670       667       666       669       671
       667       666       669       672       668       666       669       670
       668       666       669       671       668       666       669       672
       669       672       675       676       669       672       675       677
       669       672       675       678       670       669       672       673
       670       669       672       674       670       669       672       675
       671       669       672       673       671       669       672       674
       671       669       672       675       672       675       678       679
       672       675       678       680       672       675       678       681
       673       672       675       676       673       672       675       677
       673       672       675       678       674       672       675       676
       674       672       675       677       674       672       675       678
       675       678       681       682       675       678       681       683
       675       678       681       684       676       675       678       679
       676       675       678       680       676       675       678       681
       677       675       678       679       677       675       678       680
       677       675       678       681       678       681       684       685
       678       681       684       686       678       681       684       687
       679       678       681       682       679       678       681       683
       679       678       681       684       680       678       681       682
       680       678       681       683       680       678       681       684
       681       684       687       688       681       684       687       689
       681       684       687       690       682       681       684       685
       682       681       684       686       682       681       684       687
       683       681       684       685       683       681       684       686
       683       681       684       687       684       687       690       691
       684       687       690       692       684       687       690       693
       685       684       687       688       685       684       687       689
       685       684       687       690       686       684       687       688
       686       684       687       689       686       684       687       690
       687       690       693       694       687       690       693       695
       687       690       693       696       688       687       690       691
       688       687       690       692       688       687       690       693
       689       687       690       691       689       687       690       692
       689       687       690       693       690       693       696       697
       690       693       696       698       690       693       696       699
       691       690       693       694       691       690       693       695
       691       690       693       696       692       690       693       694
       692       690       693       695       692       690       693       696
       693       696       699       700       693       696       699       701
       693       696       699       702       694       693       696       697
       694       693       696       698       694       693       696       699
       695       693       696       697       695       693       696       698
       695       693       696       699       696       699       702       703
       696       699       702       704       696       699       702       705
       697       696       699       700       697       696       699       701
       697       696       699       702       698       696       699       700
       698       696       699       701       698       696       699       702
       700       699       702       703       700       699       702       704
       700       699       702       705       701       699       702       703
       701       699       702       704       701       699       702       705
       706       710       713       714       706       710       713       715
       706       710       713       719       707       706       710       711
       707       706       710       712       707       706       710       713
       708       706       710       711       708       706       710       712
       708       706       710       713       709       706       710       711
       709       706       710       712       709       706       710       713
       710       713       719       716       711       710       713       714
       711       710       713       715       711       710       713       719
       712       710       713       714       712       710       713       715
       712       710       713       719       713       719       716       717
       713       719       716       718       713       719       716       720
       714       713       719       716       715       713       719       716
       716       720       721       722       716       720       721       723
       716       720       721       724       717       716       720       721
       718       716       720       721       719       716       720       721
       720       721       724       725       720       721       724       726
       720       721       724       732       721       724       726       727
       721       724       732       733       721       724       732       734
       721       724       732       735       722       721       724       725
       722       721       724       726       722       721       724       732
       723       721       724       725       723       721       724       726
       723       721       724       732       724       726       727       728
       724       726       727       729       724       732       735       736
       725       724       726       727       725       724       732       733
       725       724       732       734       725       724       732       735
       726       724       732       733       726       724       732       734
       726       724       732       735       726       727       729       730
       726       727       729       731       726       727       729       741
       727       726       724       732       727       729       741       742
       727       729       741       743       727       729       741       744
       728       727       729       730       728       727       729       731
       728       727       729       741       729       741       744       745
       729       741       744       746       729       741       744       747
       730       729       741       742       730       729       741       743
       730       729       741       744       731       729       741       742
       731       729       741       743       731       729       741       744
       732       735       736       737       732       735       736       738
       733       732       735       736       734       732       735       736
       735       736       738       739       735       736       738       740
       735       736       738       788       736       738       788       789
       736       738       788       790       736       738       788       791
       737       736       738       739       737       736       738       740
       737       736       738       788       738       788       791       792
       738       788       791       793       738       788       791       794
       739       738       788       789       739       738       788       790
       739       738       788       791       740       738       788       789
       740       738       788       790       740       738       788       791
       741       744       747       748       741       744       747       749
       741       744       747       750       742       741       744       745
       742       741       744       746       742       741       744       747
       743       741       744       745       743       741       744       746
       743       741       744       747       744       747       750       751
       744       747       750       752       744       747       750       753
       745       744       747       748       745       744       747       749
       745       744       747       750       746       744       747       748
       746       744       747       749       746       744       747       750
       747       750       753       754       747       750       753       755
       747       750       753       756       748       747       750       751
       748       747       750       752       748       747       750       753
       749       747       750       751       749       747       750       752
       749       747       750       753       750       753       756       757
       750       753       756       758       750       753       756       759
       751       750       753       754       751       750       753       755
       751       750       753       756       752       750       753       754
       752       750       753       755       752       750       753       756
       753       756       759       760       753       756       759       761
       754       753       756       757       754       753       756       758
       754       753       756       759       755       753       756       757
       755       753       756       758       755       753       756       759
       756       759       761       762       756       759       761       763
       757       756       759       760       757       756       759       761
       758       756       759       760       758       756       759       761
       759       761       763       764       759       761       763       765
       759       761       763       766       760       759       761       762
       760       759       761       763       761       763       766       767
       761       763       766       768       761       763       766       769
       762       761       763       764       762       761       763       765
       762       761       763       766       763       766       769       770
       763       766       769       771       763       766       769       772
       764       763       766       767       764       763       766       768
       764       763       766       769       765       763       766       767
       765       763       766       768       765       763       766       769
       766       769       772       773       766       769       772       774
       766       769       772       775       767       766       769       770
       767       766       769       771       767       766       769       772
       768       766       769       770       768       766       769       771
       768       766       769       772       769       772       775       776
       769       772       775       777       769       772       775       778
       770       769       772       773       770       769       772       774
       770       769       772       775       771       769       772       773
       771       769       772       774       771       769       772       775
       772       775       778       779       772       775       778       780
       772       775       778       781       773       772       775       776
       773       772       775       777       773       772       775       778
       774       772       775       776       774       772       775       777
       774       772       775       778       775       778       781       782
       775       778       781       783       775       778       781       784
       776       775       778       779       776       775       778       780
       776       775       778       781       777       775       778       779
       777       775       778       780       777       775       778       781
       778       781       784       785       778       781       784       786
       778       781       784       787       779       778       781       782
       779       778       781       783       779       778       781       784
       780       778       781       782       780       778       781       783
       780       778       781       784       782       781       784       785
       782       781       784       786       782       781       784       787
       783       781       784       785       783       781       784       786
       783       781       784       787       788       791       794       795
       788       791       794       796       788       791       794       797
       789       788       791       792       789       788       791       793
       789       788       791       794       790       788       791       792
       790       788       791       793       790       788       791       794
       791       794       797       798       791       794       797       799
       791       794       797       800       792       791       794       795
       792       791       794       796       792       791       794       797
       793       791       794       795       793       791       794       796
       793       791       794       797       794       797       800       801
       794       797       800       802       794       797       800       803
       795       794       797       798       795       794       797       799
       795       794       797       800       796       794       797       798
       796       794       797       799       796       794       797       800
       797       800       803       804       797       800       803       805
       797       800       803       806       798       797       800       801
       798       797       800       802       798       797       800       803
       799       797       800       801       799       797       800       802
       799       797       800       803       800       803       806       807
       800       803       806       808       800       803       806       809
       801       800       803       804       801       800       803       805
       801       800       803       806       802       800       803       804
       802       800       803       805       802       800       803       806
       803       806       809       810       803       806       809       811
       803       806       809       812       804       803       806       807
       804       803       806       808       804       803       806       809
       805       803       806       807       805       803       806       808
       805       803       806       809       806       809       812       813
       806       809       812       814       806       809       812       815
       807       806       809       810       807       806       809       811
       807       806       809       812       808       806       809       810
       808       806       809       811       808       806       809       812
       809       812       815       816       809       812       815       817
       809       812       815       818       810       809       812       813
       810       809       812       814       810       809       812       815
       811       809       812       813       811       809       812       814
       811       809       812       815       812       815       818       819
       812       815       818       820       812       815       818       821
       813       812       815       816       813       812       815       817
       813       812       815       818       814       812       815       816
       814       812       815       817       814       812       815       818
       815       818       821       822       815       818       821       823
       815       818       821       824       816       815       818       819
       816       815       818       820       816       815       818       821
       817       815       818       819       817       815       818       820
       817       815       818       821       818       821       824       825
       818       821       824       826       818       821       824       827
       819       818       821       822       819       818       821       823
       819       818       821       824       820       818       821       822
       820       818       821       823       820       818       821       824
       821       824       827       828       821       824       827       829
       821       824       827       830       822       821       824       825
       822       821       824       826       822       821       824       827
       823       821       824       825       823       821       824       826
       823       821       824       827       824       827       830       831
       824       827       830       832       824       827       830       833
       825       824       827       828       825       824       827       829
       825       824       827       830       826       824       827       828
       826       824       827       829       826       824       827       830
       827       830       833       834       827       830       833       835
       827       830       833       836       828       827       830       831
       828       827       830       832       828       827       830       833
       829       827       830       831       829       827       830       832
       829       827       830       833       831       830       833       834
       831       830       833       835       831       830       833       836
       832       830       833       834       832       830       833       835
       832       830       833       836       837       841       844       845
       837       841       844       875       837       883       880       875
       837       883       880       881       837       883       880       882
       838       837       839       840       838       837       841       842
       838       837       841       843       838       837       841       844
       838       837       883       880       838       837       883       884
       838       837       883       885       839       837       841       842
       839       837       841       843       839       837       841       844
       839       837       883       880       839       837       883       884
       839       837       883       885       840       839       837       841
       840       839       837       883       841       837       883       880
       841       837       883       884       841       837       883       885
       841       844       845       846       841       844       845       847
       841       844       875       873       841       844       875       876
       841       844       875       880       842       841       837       883
       842       841       844       845       842       841       844       875
       843       841       837       883       843       841       844       845
       843       841       844       875       844       841       837       883
       844       845       847       848       844       845       847       849
       844       845       847       850       844       875       873       850
       844       875       873       870       844       875       873       874
       844       875       876       877       844       875       876       878
       844       875       876       879       844       875       880       881
       844       875       880       882       844       875       880       883
       845       844       875       873       845       844       875       876
       845       844       875       880       845       847       850       851
       845       847       850       852       845       847       850       873
       846       845       844       875       846       845       847       848
       846       845       847       849       846       845       847       850
       847       845       844       875       847       850       852       853
       847       850       852       854       847       850       852       862
       847       850       873       870       847       850       873       874
       847       850       873       875       848       847       850       851
       848       847       850       852       848       847       850       873
       849       847       850       851       849       847       850       852
       849       847       850       873       850       852       854       855
       850       852       854       856       850       852       854       857
       850       852       862       860       850       852       862       863
       850       852       862       867       850       873       870       867
       850       873       870       871       850       873       870       872
       850       873       875       876       850       873       875       880
       851       850       852       853       851       850       852       854
       851       850       852       862       851       850       873       870
       851       850       873       874       851       850       873       875
       852       850       873       870       852       850       873       874
       852       850       873       875       852       854       857       858
       852       854       857       859       852       854       857       860
       852       862       860       857       852       862       860       861
       852       862       860       886       852       862       863       864
       852       862       863       865       852       862       863       866
       852       862       867       868       852       862       867       869
       852       862       867       870       853       852       850       873
       853       852       854       855       853       852       854       856
       853       852       854       857       853       852       862       860
       853       852       862       863       853       852       862       867
       854       852       850       873       854       852       862       860
       854       852       862       863       854       852       862       867
       854       857       860       861       854       857       860       862
       854       857       860       886       855       854       852       862
       855       854       857       858       855       854       857       859
       855       854       857       860       856       854       852       862
       856       854       857       858       856       854       857       859
       856       854       857       860       857       854       852       862
       857       860       862       863       857       860       862       867
       857       860       886       887       857       860       886       888
       857       860       886       892       858       857       860       861
       858       857       860       862       858       857       860       886
       859       857       860       861       859       857       860       862
       859       857       860       886       860       862       863       864
       860       862       863       865       860       862       863       866
       860       862       867       868       860       862       867       869
       860       862       867       870       860       886       888       889
       860       886       888       890       860       886       888       891
       860       886       892       893       860       886       892       894
       860       886       892       895       861       860       862       863
       861       860       862       867       861       860       886       887
       861       860       886       888       861       860       886       892
       862       852       850       873       862       860       886       887
       862       860       886       888       862       860       886       892
       862       867       870       871       862       867       870       872
       862       867       870       873       863       862       860       886
       863       862       867       868       863       862       867       869
       863       862       867       870       864       863       862       867
       865       863       862       867       866       863       862       867
       867       862       860       886       867       870       873       874
       867       870       873       875       868       867       870       871
       868       867       870       872       868       867       870       873
       869       867       870       871       869       867       870       872
       869       867       870       873       870       873       875       876
       870       873       875       880       871       870       873       874
       871       870       873       875       872       870       873       874
       872       870       873       875       873       875       876       877
       873       875       876       878       873       875       876       879
       873       875       880       881       873       875       880       882
       873       875       880       883       874       873       875       876
       874       873       875       880       875       880       883       884
       875       880       883       885       876       875       880       881
       876       875       880       882       876       875       880       883
       877       876       875       880       878       876       875       880
       879       876       875       880       881       880       883       884
       881       880       883       885       882       880       883       884
       882       880       883       885       886       892       895       896
       886       892       895       897       886       892       895       898
       887       886       888       889       887       886       888       890
       887       886       888       891       887       886       892       893
       887       886       892       894       887       886       892       895
       888       886       892       893       888       886       892       894
       888       886       892       895       889       888       886       892
       890       888       886       892       891       888       886       892
       892       895       898       899       892       895       898       900
       892       895       898       901       893       892       895       896
       893       892       895       897       893       892       895       898
       894       892       895       896       894       892       895       897
       894       892       895       898       895       898       901       902
       895       898       901       903       895       898       901       907
       896       895       898       899       896       895       898       900
       896       895       898       901       897       895       898       899
       897       895       898       900       897       895       898       901
       898       901       903       904       898       901       903       905
       898       901       903       906       898       901       907       908
       898       901       907       909       898       901       907       910
       899       898       901       902       899       898       901       903
       899       898       901       907       900       898       901       902
       900       898       901       903       900       898       901       907
       902       901       903       904       902       901       903       905
       902       901       903       906       902       901       907       908
       902       901       907       909       902       901       907       910
       903       901       907       908       903       901       907       909
       903       901       907       910       904       903       901       907
       905       903       901       907       906       903       901       907
       911       915       918       919       911       915       918       949
       911       957       954       949       911       957       954       955
       911       957       954       956       912       911       913       914
       912       911       915       916       912       911       915       917
       912       911       915       918       912       911       957       954
       912       911       957       958       912       911       957       959
       913       911       915       916       913       911       915       917
       913       911       915       918       913       911       957       954
       913       911       957       958       913       911       957       959
       914       913       911       915       914       913       911       957
       915       911       957       954       915       911       957       958
       915       911       957       959       915       918       919       920
       915       918       919       921       915       918       949       947
       915       918       949       950       915       918       949       954
       916       915       911       957       916       915       918       919
       916       915       918       949       917       915       911       957
       917       915       918       919       917       915       918       949
       918       915       911       957       918       919       921       922
       918       919       921       923       918       919       921       924
       918       949       947       924       918       949       947       944
       918       949       947       948       918       949       950       951
       918       949       950       952       918       949       950       953
       918       949       954       955       918       949       954       956
       918       949       954       957       919       918       949       947
       919       918       949       950       919       918       949       954
       919       921       924       925       919       921       924       926
       919       921       924       947       920       919       918       949
       920       919       921       922       920       919       921       923
       920       919       921       924       921       919       918       949
       921       924       926       927       921       924       926       928
       921       924       926       936       921       924       947       944
       921       924       947       948       921       924       947       949
       922       921       924       925       922       921       924       926
       922       921       924       947       923       921       924       925
       923       921       924       926       923       921       924       947
       924       926       928       929       924       926       928       930
       924       926       928       931       924       926       936       934
       924       926       936       937       924       926       936       941
       924       947       944       941       924       947       944       945
       924       947       944       946       924       947       949       950
       924       947       949       954       925       924       926       927
       925       924       926       928       925       924       926       936
       925       924       947       944       925       924       947       948
       925       924       947       949       926       924       947       944
       926       924       947       948       926       924       947       949
       926       928       931       932       926       928       931       933
       926       928       931       934       926       936       934       931
       926       936       934       935       926       936       934       960
       926       936       937       938       926       936       937       939
       926       936       937       940       926       936       941       942
       926       936       941       943       926       936       941       944
       927       926       924       947       927       926       928       929
       927       926       928       930       927       926       928       931
       927       926       936       934       927       926       936       937
       927       926       936       941       928       926       924       947
       928       926       936       934       928       926       936       937
       928       926       936       941       928       931       934       935
       928       931       934       936       928       931       934       960
       929       928       926       936       929       928       931       932
       929       928       931       933       929       928       931       934
       930       928       926       936       930       928       931       932
       930       928       931       933       930       928       931       934
       931       928       926       936       931       934       936       937
       931       934       936       941       931       934       960       961
       931       934       960       962       931       934       960       966
       932       931       934       935       932       931       934       936
       932       931       934       960       933       931       934       935
       933       931       934       936       933       931       934       960
       934       936       937       938       934       936       937       939
       934       936       937       940       934       936       941       942
       934       936       941       943       934       936       941       944
       934       960       962       963       934       960       962       964
       934       960       962       965       934       960       966       967
       934       960       966       968       934       960       966       969
       935       934       936       937       935       934       936       941
       935       934       960       961       935       934       960       962
       935       934       960       966       936       926       924       947
       936       934       960       961       936       934       960       962
       936       934       960       966       936       941       944       945
       936       941       944       946       936       941       944       947
       937       936       934       960       937       936       941       942
       937       936       941       943       937       936       941       944
       938       937       936       941       939       937       936       941
       940       937       936       941       941       936       934       960
       941       944       947       948       941       944       947       949
       942       941       944       945       942       941       944       946
       942       941       944       947       943       941       944       945
       943       941       944       946       943       941       944       947
       944       947       949       950       944       947       949       954
       945       944       947       948       945       944       947       949
       946       944       947       948       946       944       947       949
       947       949       950       951       947       949       950       952
       947       949       950       953       947       949       954       955
       947       949       954       956       947       949       954       957
       948       947       949       950       948       947       949       954
       949       954       957       958       949       954       957       959
       950       949       954       955       950       949       954       956
       950       949       954       957       951       950       949       954
       952       950       949       954       953       950       949       954
       955       954       957       958       955       954       957       959
       956       954       957       958       956       954       957       959
       960       966       969       970       960       966       969       971
       960       966       969       972       961       960       962       963
       961       960       962       964       961       960       962       965
       961       960       966       967       961       960       966       968
       961       960       966       969       962       960       966       967
       962       960       966       968       962       960       966       969
       963       962       960       966       964       962       960       966
       965       962       960       966       966       969       972       973
       966       969       972       974       966       969       972       975
       967       966       969       970       967       966       969       971
       967       966       969       972       968       966       969       970
       968       966       969       971       968       966       969       972
       969       972       975       976       969       972       975       977
       969       972       975       981       970       969       972       973
       970       969       972       974       970       969       972       975
       971       969       972       973       971       969       972       974
       971       969       972       975       972       975       977       978
       972       975       977       979       972       975       977       980
       972       975       981       982       972       975       981       983
       972       975       981       984       973       972       975       976
       973       972       975       977       973       972       975       981
       974       972       975       976       974       972       975       977
       974       972       975       981       976       975       977       978
       976       975       977       979       976       975       977       980
       976       975       981       982       976       975       981       983
       976       975       981       984       977       975       981       982
       977       975       981       983       977       975       981       984
       978       977       975       981       979       977       975       981
       980       977       975       981       985       989       992       993
       985       989       992       994       985       989       992       998
       986       985       989       990       986       985       989       991
       986       985       989       992       987       985       989       990
       987       985       989       991       987       985       989       992
       988       985       989       990       988       985       989       991
       988       985       989       992       989       992       998       995
       990       989       992       993       990       989       992       994
       990       989       992       998       991       989       992       993
       991       989       992       994       991       989       992       998
       992       998       995       996       992       998       995       997
       992       998       995       999       993       992       998       995
       994       992       998       995       995       999      1000      1001
       995       999      1000      1002       995       999      1000      1003
       996       995       999      1000       997       995       999      1000
       998       995       999      1000       999      1000      1003      1004
       999      1000      1003      1005       999      1000      1003      1011
      1000      1003      1005      1006      1000      1003      1011      1012
      1000      1003      1011      1013      1000      1003      1011      1014
      1001      1000      1003      1004      1001      1000      1003      1005
      1001      1000      1003      1011      1002      1000      1003      1004
      1002      1000      1003      1005      1002      1000      1003      1011
      1003      1005      1006      1007      1003      1005      1006      1008
      1003      1011      1014      1015      1004      1003      1005      1006
      1004      1003      1011      1012      1004      1003      1011      1013
      1004      1003      1011      1014      1005      1003      1011      1012
      1005      1003      1011      1013      1005      1003      1011      1014
      1005      1006      1008      1009      1005      1006      1008      1010
      1005      1006      1008      1020      1006      1005      1003      1011
      1006      1008      1020      1021      1006      1008      1020      1022
      1006      1008      1020      1023      1007      1006      1008      1009
      1007      1006      1008      1010      1007      1006      1008      1020
      1008      1020      1023      1024      1008      1020      1023      1025
      1008      1020      1023      1026      1009      1008      1020      1021
      1009      1008      1020      1022      1009      1008      1020      1023
      1010      1008      1020      1021      1010      1008      1020      1022
      1010      1008      1020      1023      1011      1014      1015      1016
      1011      1014      1015      1017      1012      1011      1014      1015
      1013      1011      1014      1015      1014      1015      1017      1018
      1014      1015      1017      1019      1014      1015      1017      1067
      1015      1017      1067      1068      1015      1017      1067      1069
      1015      1017      1067      1070      1016      1015      1017      1018
      1016      1015      1017      1019      1016      1015      1017      1067
      1017      1067      1070      1071      1017      1067      1070      1072
      1017      1067      1070      1073      1018      1017      1067      1068
      1018      1017      1067      1069      1018      1017      1067      1070
      1019      1017      1067      1068      1019      1017      1067      1069
      1019      1017      1067      1070      1020      1023      1026      1027
      1020      1023      1026      1028      1021      1020      1023      1024
      1021      1020      1023      1025      1021      1020      1023      1026
      1022      1020      1023      1024      1022      1020      1023      1025
      1022      1020      1023      1026      1023      1026      1028      1029
      1023      1026      1028      1030      1024      1023      1026      1027
      1024      1023      1026      1028      1025      1023      1026      1027
      1025      1023      1026      1028      1026      1028      1030      1031
      1026      1028      1030      1032      1026      1028      1030      1033
      1027      1026      1028      1029      1027      1026      1028      1030
      1028      1030      1033      1034      1028      1030      1033      1035
      1029      1028      1030      1031      1029      1028      1030      1032
      1029      1028      1030      1033      1030      1033      1035      1036
      1030      1033      1035      1037      1031      1030      1033      1034
      1031      1030      1033      1035      1032      1030      1033      1034
      1032      1030      1033      1035      1033      1035      1037      1038
      1033      1035      1037      1039      1033      1035      1037      1040
      1034      1033      1035      1036      1034      1033      1035      1037
      1035      1037      1040      1041      1035      1037      1040      1042
      1036      1035      1037      1038      1036      1035      1037      1039
      1036      1035      1037      1040      1037      1040      1042      1043
      1037      1040      1042      1044      1038      1037      1040      1041
      1038      1037      1040      1042      1039      1037      1040      1041
      1039      1037      1040      1042      1040      1042      1044      1045
      1040      1042      1044      1046      1040      1042      1044      1047
      1041      1040      1042      1043      1041      1040      1042      1044
      1042      1044      1047      1048      1042      1044      1047      1049
      1043      1042      1044      1045      1043      1042      1044      1046
      1043      1042      1044      1047      1044      1047      1049      1050
      1044      1047      1049      1051      1045      1044      1047      1048
      1045      1044      1047      1049      1046      1044      1047      1048
      1046      1044      1047      1049      1047      1049      1051      1052
      1047      1049      1051      1053      1047      1049      1051      1054
      1048      1047      1049      1050      1048      1047      1049      1051
      1049      1051      1054      1055      1049      1051      1054      1056
      1049      1051      1054      1057      1050      1049      1051      1052
      1050      1049      1051      1053      1050      1049      1051      1054
      1051      1054      1057      1058      1051      1054      1057      1059
      1051      1054      1057      1060      1052      1051      1054      1055
      1052      1051      1054      1056      1052      1051      1054      1057
      1053      1051      1054      1055      1053      1051      1054      1056
      1053      1051      1054      1057      1054      1057      1060      1061
      1054      1057      1060      1062      1054      1057      1060      1063
      1055      1054      1057      1058      1055      1054      1057      1059
      1055      1054      1057      1060      1056      1054      1057      1058
      1056      1054      1057      1059      1056      1054      1057      1060
      1057      1060      1063      1064      1057      1060      1063      1065
      1057      1060      1063      1066      1058      1057      1060      1061
      1058      1057      1060      1062      1058      1057      1060      1063
      1059      1057      1060      1061      1059      1057      1060      1062
      1059      1057      1060      1063      1061      1060      1063      1064
      1061      1060      1063      1065      1061      1060      1063      1066
      1062      1060      1063      1064      1062      1060      1063      1065
      1062      1060      1063      1066      1067      1070      1073      1074
      1067      1070      1073      1075      1067      1070      1073      1076
      1068      1067      1070      1071      1068      1067      1070      1072
      1068      1067      1070      1073      1069      1067      1070      1071
      1069      1067      1070      1072      1069      1067      1070      1073
      1070      1073      1076      1077      1070      1073      1076      1078
      1070      1073      1076      1079      1071      1070      1073      1074
      1071      1070      1073      1075      1071      1070      1073      1076
      1072      1070      1073      1074      1072      1070      1073      1075
      1072      1070      1073      1076      1073      1076      1079      1080
      1073      1076      1079      1081      1073      1076      1079      1082
      1074      1073      1076      1077      1074      1073      1076      1078
      1074      1073      1076      1079      1075      1073      1076      1077
      1075      1073      1076      1078      1075      1073      1076      1079
      1076      1079      1082      1083      1076      1079      1082      1084
      1076      1079      1082      1085      1077      1076      1079      1080
      1077      1076      1079      1081      1077      1076      1079      1082
      1078      1076      1079      1080      1078      1076      1079      1081
      1078      1076      1079      1082      1079      1082      1085      1086
      1079      1082      1085      1087      1079      1082      1085      1088
      1080      1079      1082      1083      1080      1079      1082      1084
      1080      1079      1082      1085      1081      1079      1082      1083
      1081      1079      1082      1084      1081      1079      1082      1085
      1082      1085      1088      1089      1082      1085      1088      1090
      1082      1085      1088      1091      1083      1082      1085      1086
      1083      1082      1085      1087      1083      1082      1085      1088
      1084      1082      1085      1086      1084      1082      1085      1087
      1084      1082      1085      1088      1085      1088      1091      1092
      1085      1088      1091      1093      1085      1088      1091      1094
      1086      1085      1088      1089      1086      1085      1088      1090
      1086      1085      1088      1091      1087      1085      1088      1089
      1087      1085      1088      1090      1087      1085      1088      1091
      1088      1091      1094      1095      1088      1091      1094      1096
      1088      1091      1094      1097      1089      1088      1091      1092
      1089      1088      1091      1093      1089      1088      1091      1094
      1090      1088      1091      1092      1090      1088      1091      1093
      1090      1088      1091      1094      1091      1094      1097      1098
      1091      1094      1097      1099      1091      1094      1097      1100
      1092      1091      1094      1095      1092      1091      1094      1096
      1092      1091      1094      1097      1093      1091      1094      1095
      1093      1091      1094      1096      1093      1091      1094      1097
      1094      1097      1100      1101      1094      1097      1100      1102
      1094      1097      1100      1103      1095      1094      1097      1098
      1095      1094      1097      1099      1095      1094      1097      1100
      1096      1094      1097      1098      1096      1094      1097      1099
      1096      1094      1097      1100      1097      1100      1103      1104
      1097      1100      1103      1105      1097      1100      1103      1106
      1098      1097      1100      1101      1098      1097      1100      1102
      1098      1097      1100      1103      1099      1097      1100      1101
      1099      1097      1100      1102      1099      1097      1100      1103
      1100      1103      1106      1107      1100      1103      1106      1108
      1100      1103      1106      1109      1101      1100      1103      1104
      1101      1100      1103      1105      1101      1100      1103      1106
      1102      1100      1103      1104      1102      1100      1103      1105
      1102      1100      1103      1106      1103      1106      1109      1110
      1103      1106      1109      1111      1103      1106      1109      1112
      1104      1103      1106      1107      1104      1103      1106      1108
      1104      1103      1106      1109      1105      1103      1106      1107
      1105      1103      1106      1108      1105      1103      1106      1109
      1106      1109      1112      1113      1106      1109      1112      1114
      1106      1109      1112      1115      1107      1106      1109      1110
      1107      1106      1109      1111      1107      1106      1109      1112
      1108      1106      1109      1110      1108      1106      1109      1111
      1108      1106      1109      1112      1110      1109      1112      1113
      1110      1109      1112      1114      1110      1109      1112      1115
      1111      1109      1112      1113      1111      1109      1112      1114
      1111      1109      1112      1115      1116      1120      1123      1124
      1116      1120      1123      1154      1116      1162      1159      1154
      1116      1162      1159      1160      1116      1162      1159      1161
      1117      1116      1118      1119      1117      1116      1120      1121
      1117      1116      1120      1122      1117      1116      1120      1123
      1117      1116      1162      1159      1117      1116      1162      1163
      1117      1116      1162      1164      1118      1116      1120      1121
      1118      1116      1120      1122      1118      1116      1120      1123
      1118      1116      1162      1159      1118      1116      1162      1163
      1118      1116      1162      1164      1119      1118      1116      1120
      1119      1118      1116      1162      1120      1116      1162      1159
      1120      1116      1162      1163      1120      1116      1162      1164
      1120      1123      1124      1125      1120      1123      1124      1126
      1120      1123      1154      1152      1120      1123      1154      1155
      1120      1123      1154      1159      1121      1120      1116      1162
      1121      1120      1123      1124      1121      1120      1123      1154
      1122      1120      1116      1162      1122      1120      1123      1124
      1122      1120      1123      1154      1123      1120      1116      1162
      1123      1124      1126      1127      1123      1124      1126      1128
      1123      1124      1126      1129      1123      1154      1152      1129
      1123      1154      1152      1149      1123      1154      1152      1153
      1123      1154      1155      1156      1123      1154      1155      1157
      1123      1154      1155      1158      1123      1154      1159      1160
      1123      1154      1159      1161      1123      1154      1159      1162
      1124      1123      1154      1152      1124      1123      1154      1155
      1124      1123      1154      1159      1124      1126      1129      1130
      1124      1126      1129      1131      1124      1126      1129      1152
      1125      1124      1123      1154      1125      1124      1126      1127
      1125      1124      1126      1128      1125      1124      1126      1129
      1126      1124      1123      1154      1126      1129      1131      1132
      1126      1129      1131      1133      1126      1129      1131      1141
      1126      1129      1152      1149      1126      1129      1152      1153
      1126      1129      1152      1154      1127      1126      1129      1130
      1127      1126      1129      1131      1127      1126      1129      1152
      1128      1126      1129      1130      1128      1126      1129      1131
      1128      1126      1129      1152      1129      1131      1133      1134
      1129      1131      1133      1135      1129      1131      1133      1136
      1129      1131      1141      1139      1129      1131      1141      1142
      1129      1131      1141      1146      1129      1152      1149      1146
      1129      1152      1149      1150      1129      1152      1149      1151
      1129      1152      1154      1155      1129      1152      1154      1159
      1130      1129      1131      1132      1130      1129      1131      1133
      1130      1129      1131      1141      1130      1129      1152      1149
      1130      1129      1152      1153      1130      1129      1152      1154
      1131      1129      1152      1149      1131      1129      1152      1153
      1131      1129      1152      1154      1131      1133      1136      1137
      1131      1133      1136      1138      1131      1133      1136      1139
      1131      1141      1139      1136      1131      1141      1139      1140
      1131      1141      1139      1165      1131      1141      1142      1143
      1131      1141      1142      1144      1131      1141      1142      1145
      1131      1141      1146      1147      1131      1141      1146      1148
      1131      1141      1146      1149      1132      1131      1129      1152
      1132      1131      1133      1134      1132      1131      1133      1135
      1132      1131      1133      1136      1132      1131      1141      1139
      1132      1131      1141      1142      1132      1131      1141      1146
      1133      1131      1129      1152      1133      1131      1141      1139
      1133      1131      1141      1142      1133      1131      1141      1146
      1133      1136      1139      1140      1133      1136      1139      1141
      1133      1136      1139      1165      1134      1133      1131      1141
      1134      1133      1136      1137      1134      1133      1136      1138
      1134      1133      1136      1139      1135      1133      1131      1141
      1135      1133      1136      1137      1135      1133      1136      1138
      1135      1133      1136      1139      1136      1133      1131      1141
      1136      1139      1141      1142      1136      1139      1141      1146
      1136      1139      1165      1166      1136      1139      1165      1167
      1136      1139      1165      1171      1137      1136      1139      1140
      1137      1136      1139      1141      1137      1136      1139      1165
      1138      1136      1139      1140      1138      1136      1139      1141
      1138      1136      1139      1165      1139      1141      1142      1143
      1139      1141      1142      1144      1139      1141      1142      1145
      1139      1141      1146      1147      1139      1141      1146      1148
      1139      1141      1146      1149      1139      1165      1167      1168
      1139      1165      1167      1169      1139      1165      1167      1170
      1139      1165      1171      1172      1139      1165      1171      1173
      1139      1165      1171      1174      1140      1139      1141      1142
      1140      1139      1141      1146      1140      1139      1165      1166
      1140      1139      1165      1167      1140      1139      1165      1171
      1141      1131      1129      1152      1141      1139      1165      1166
      1141      1139      1165      1167      1141      1139      1165      1171
      1141      1146      1149      1150      1141      1146      1149      1151
      1141      1146      1149      1152      1142      1141      1139      1165
      1142      1141      1146      1147      1142      1141      1146      1148
      1142      1141      1146      1149      1143      1142      1141      1146
      1144      1142      1141      1146      1145      1142      1141      1146
      1146      1141      1139      1165      1146      1149      1152      1153
      1146      1149      1152      1154      1147      1146      1149      1150
      1147      1146      1149      1151      1147      1146      1149      1152
      1148      1146      1149      1150      1148      1146      1149      1151
      1148      1146      1149      1152      1149      1152      1154      1155
      1149      1152      1154      1159      1150      1149      1152      1153
      1150      1149      1152      1154      1151      1149      1152      1153
      1151      1149      1152      1154      1152      1154      1155      1156
      1152      1154      1155      1157      1152      1154      1155      1158
      1152      1154      1159      1160      1152      1154      1159      1161
      1152      1154      1159      1162      1153      1152      1154      1155
      1153      1152      1154      1159      1154      1159      1162      1163
      1154      1159      1162      1164      1155      1154      1159      1160
      1155      1154      1159      1161      1155      1154      1159      1162
      1156      1155      1154      1159      1157      1155      1154      1159
      1158      1155      1154      1159      1160      1159      1162      1163
      1160      1159      1162      1164      1161      1159      1162      1163
      1161      1159      1162      1164      1165      1171      1174      1175
      1165      1171      1174      1176      1165      1171      1174      1177
      1166      1165      1167      1168      1166      1165      1167      1169
      1166      1165      1167      1170      1166      1165      1171      1172
      1166      1165      1171      1173      1166      1165      1171      1174
      1167      1165      1171      1172      1167      1165      1171      1173
      1167      1165      1171      1174      1168      1167      1165      1171
      1169      1167      1165      1171      1170      1167      1165      1171
      1171      1174      1177      1178      1171      1174      1177      1179
      1171      1174      1177      1180      1172      1171      1174      1175
      1172      1171      1174      1176      1172      1171      1174      1177
      1173      1171      1174      1175      1173      1171      1174      1176
      1173      1171      1174      1177      1174      1177      1180      1181
      1174      1177      1180      1182      1174      1177      1180      1186
      1175      1174      1177      1178      1175      1174      1177      1179
      1175      1174      1177      1180      1176      1174      1177      1178
      1176      1174      1177      1179      1176      1174      1177      1180
      1177      1180      1182      1183      1177      1180      1182      1184
      1177      1180      1182      1185      1177      1180      1186      1187
      1177      1180      1186      1188      1177      1180      1186      1189
      1178      1177      1180      1181      1178      1177      1180      1182
      1178      1177      1180      1186      1179      1177      1180      1181
      1179      1177      1180      1182      1179      1177      1180      1186
      1181      1180      1182      1183      1181      1180      1182      1184
      1181      1180      1182      1185      1181      1180      1186      1187
      1181      1180      1186      1188      1181      1180      1186      1189
      1182      1180      1186      1187      1182      1180      1186      1188
      1182      1180      1186      1189      1183      1182      1180      1186
      1184      1182      1180      1186      1185      1182      1180      1186
      1190      1203      1206      1207      1190      1203      1206      1208
      1190      1203      1206      1212      1191      1190      1195      1196
      1191      1190      1195      1197      1191      1190      1195      1198
      1191      1190      1199      1200      1191      1190      1199      1201
      1191      1190      1199      1202      1191      1190      1203      1204
      1191      1190      1203      1205      1191      1190      1203      1206
      1192      1191      1190      1195      1192      1191      1190      1199
      1192      1191      1190      1203      1193      1191      1190      1195
      1193      1191      1190      1199      1193      1191      1190      1203
      1194      1191      1190      1195      1194      1191      1190      1199
      1194      1191      1190      1203      1195      1190      1199      1200
      1195      1190      1199      1201      1195      1190      1199      1202
      1195      1190      1203      1204      1195      1190      1203      1205
      1195      1190      1203      1206      1196      1195      1190      1199
      1196      1195      1190      1203      1197      1195      1190      1199
      1197      1195      1190      1203      1198      1195      1190      1199
      1198      1195      1190      1203      1199      1190      1203      1204
      1199      1190      1203      1205      1199      1190      1203      1206
      1200      1199      1190      1203      1201      1199      1190      1203
      1202      1199      1190      1203      1203      1206      1212      1209
      1204      1203      1206      1207      1204      1203      1206      1208
      1204      1203      1206      1212      1205      1203      1206      1207
      1205      1203      1206      1208      1205      1203      1206      1212
      1206      1212      1209      1210      1206      1212      1209      1211
      1206      1212      1209      1213      1207      1206      1212      1209
      1208      1206      1212      1209      1209      1213      1214      1215
      1209      1213      1214      1216      1209      1213      1214      1217
      1210      1209      1213      1214      1211      1209      1213      1214
      1212      1209      1213      1214      1213      1214      1217      1218
      1213      1214      1217      1219      1213      1214      1217      1225
      1214      1217      1219      1220      1214      1217      1225      1226
      1214      1217      1225      1227      1214      1217      1225      1228
      1215      1214      1217      1218      1215      1214      1217      1219
      1215      1214      1217      1225      1216      1214      1217      1218
      1216      1214      1217      1219      1216      1214      1217      1225
      1217      1219      1220      1221      1217      1219      1220      1222
      1217      1225      1228      1229      1218      1217      1219      1220
      1218      1217      1225      1226      1218      1217      1225      1227
      1218      1217      1225      1228      1219      1217      1225      1226
      1219      1217      1225      1227      1219      1217      1225      1228
      1219      1220      1222      1223      1219      1220      1222      1224
      1219      1220      1222      1234      1220      1219      1217      1225
      1220      1222      1234      1235      1220      1222      1234      1236
      1220      1222      1234      1237      1221      1220      1222      1223
      1221      1220      1222      1224      1221      1220      1222      1234
      1222      1234      1237      1238      1222      1234      1237      1239
      1222      1234      1237      1240      1223      1222      1234      1235
      1223      1222      1234      1236      1223      1222      1234      1237
      1224      1222      1234      1235      1224      1222      1234      1236
      1224      1222      1234      1237      1225      1228      1229      1230
      1225      1228      1229      1231      1226      1225      1228      1229
      1227      1225      1228      1229      1228      1229      1231      1232
      1228      1229      1231      1233      1228      1229      1231      1279
      1229      1231      1279      1280      1229      1231      1279      1281
      1229      1231      1279      1282      1230      1229      1231      1232
      1230      1229      1231      1233      1230      1229      1231      1279
      1231      1279      1282      1283      1231      1279      1282      1284
      1231      1279      1282      1285      1232      1231      1279      1280
      1232      1231      1279      1281      1232      1231      1279      1282
      1233      1231      1279      1280      1233      1231      1279      1281
      1233      1231      1279      1282      1234      1237      1240      1241
      1234      1237      1240      1242      1234      1237      1240      1243
      1235      1234      1237      1238      1235      1234      1237      1239
      1235      1234      1237      1240      1236      1234      1237      1238
      1236      1234      1237      1239      1236      1234      1237      1240
      1237      1240      1243      1244      1237      1240      1243      1245
      1237      1240      1243      1246      1238      1237      1240      1241
      1238      1237      1240      1242      1238      1237      1240      1243
      1239      1237      1240      1241      1239      1237      1240      1242
      1239      1237      1240      1243      1240      1243      1246      1247
      1240      1243      1246      1248      1240      1243      1246      1249
      1241      1240      1243      1244      1241      1240      1243      1245
      1241      1240      1243      1246      1242      1240      1243      1244
      1242      1240      1243      1245      1242      1240      1243      1246
      1243      1246      1249      1250      1243      1246      1249      1251
      1243      1246      1249      1252      1244      1243      1246      1247
      1244      1243      1246      1248      1244      1243      1246      1249
      1245      1243      1246      1247      1245      1243      1246      1248
      1245      1243      1246      1249      1246      1249      1252      1253
      1246      1249      1252      1254      1247      1246      1249      1250
      1247      1246      1249      1251      1247      1246      1249      1252
      1248      1246      1249      1250      1248      1246      1249      1251
      1248      1246      1249      1252      1249      1252      1254      1255
      1249      1252      1254      1256      1250      1249      1252      1253
      1250      1249      1252      1254      1251      1249      1252      1253
      1251      1249      1252      1254      1252      1254      1256      1257
      1252      1254      1256      1258      1252      1254      1256      1259
      1253      1252      1254      1255      1253      1252      1254      1256
      1254      1256      1259      1260      1254      1256      1259      1261
      1255      1254      1256      1257      1255      1254      1256      1258
      1255      1254      1256      1259      1256      1259      1261      1262
      1256      1259      1261      1263      1257      1256      1259      1260
      1257      1256      1259      1261      1258      1256      1259      1260
      1258      1256      1259      1261      1259      1261      1263      1264
      1259      1261      1263      1265      1259      1261      1263      1266
      1260      1259      1261      1262      1260      1259      1261      1263
      1261      1263      1266      1267      1261      1263      1266      1268
      1261      1263      1266      1269      1262      1261      1263      1264
      1262      1261      1263      1265      1262      1261      1263      1266
      1263      1266      1269      1270      1263      1266      1269      1271
      1263      1266      1269      1272      1264      1263      1266      1267
      1264      1263      1266      1268      1264      1263      1266      1269
      1265      1263      1266      1267      1265      1263      1266      1268
      1265      1263      1266      1269      1266      1269      1272      1273
      1266      1269      1272      1274      1266      1269      1272      1275
      1267      1266      1269      1270      1267      1266      1269      1271
      1267      1266      1269      1272      1268      1266      1269      1270
      1268      1266      1269      1271      1268      1266      1269      1272
      1269      1272      1275      1276      1269      1272      1275      1277
      1269      1272      1275      1278      1270      1269      1272      1273
      1270      1269      1272      1274      1270      1269      1272      1275
      1271      1269      1272      1273      1271      1269      1272      1274
      1271      1269      1272      1275      1273      1272      1275      1276
      1273      1272      1275      1277      1273      1272      1275      1278
      1274      1272      1275      1276      1274      1272      1275      1277
      1274      1272      1275      1278      1279      1282      1285      1286
      1279      1282      1285      1287      1279      1282      1285      1288
      1280      1279      1282      1283      1280      1279      1282      1284
      1280      1279      1282      1285      1281      1279      1282      1283
      1281      1279      1282      1284      1281      1279      1282      1285
      1282      1285      1288      1289      1282      1285      1288      1290
      1282      1285      1288      1291      1283      1282      1285      1286
      1283      1282      1285      1287      1283      1282      1285      1288
      1284      1282      1285      1286      1284      1282      1285      1287
      1284      1282      1285      1288      1285      1288      1291      1292
      1285      1288      1291      1293      1285      1288      1291      1294
      1286      1285      1288      1289      1286      1285      1288      1290
      1286      1285      1288      1291      1287      1285      1288      1289
      1287      1285      1288      1290      1287      1285      1288      1291
      1288      1291      1294      1295      1288      1291      1294      1296
      1288      1291      1294      1297      1289      1288      1291      1292
      1289      1288      1291      1293      1289      1288      1291      1294
      1290      1288      1291      1292      1290      1288      1291      1293
      1290      1288      1291      1294      1291      1294      1297      1298
      1291      1294      1297      1299      1291      1294      1297      1300
      1292      1291      1294      1295      1292      1291      1294      1296
      1292      1291      1294      1297      1293      1291      1294      1295
      1293      1291      1294      1296      1293      1291      1294      1297
      1294      1297      1300      1301      1294      1297      1300      1302
      1294      1297      1300      1303      1295      1294      1297      1298
      1295      1294      1297      1299      1295      1294      1297      1300
      1296      1294      1297      1298      1296      1294      1297      1299
      1296      1294      1297      1300      1297      1300      1303      1304
      1297      1300      1303      1305      1297      1300      1303      1306
      1298      1297      1300      1301      1298      1297      1300      1302
      1298      1297      1300      1303      1299      1297      1300      1301
      1299      1297      1300      1302      1299      1297      1300      1303
      1300      1303      1306      1307      1300      1303      1306      1308
      1300      1303      1306      1309      1301      1300      1303      1304
      1301      1300      1303      1305      1301      1300      1303      1306
      1302      1300      1303      1304      1302      1300      1303      1305
      1302      1300      1303      1306      1303      1306      1309      1310
      1303      1306      1309      1311      1303      1306      1309      1312
      1304      1303      1306      1307      1304      1303      1306      1308
      1304      1303      1306      1309      1305      1303      1306      1307
      1305      1303      1306      1308      1305      1303      1306      1309
      1306      1309      1312      1313      1306      1309      1312      1314
      1306      1309      1312      1315      1307      1306      1309      1310
      1307      1306      1309      1311      1307      1306      1309      1312
      1308      1306      1309      1310      1308      1306      1309      1311
      1308      1306      1309      1312      1309      1312      1315      1316
      1309      1312      1315      1317      1309      1312      1315      1318
      1310      1309      1312      1313      1310      1309      1312      1314
      1310      1309      1312      1315      1311      1309      1312      1313
      1311      1309      1312      1314      1311      1309      1312      1315
      1312      1315      1318      1319      1312      1315      1318      1320
      1312      1315      1318      1321      1313      1312      1315      1316
      1313      1312      1315      1317      1313      1312      1315      1318
      1314      1312      1315      1316      1314      1312      1315      1317
      1314      1312      1315      1318      1315      1318      1321      1322
      1315      1318      1321      1323      1315      1318      1321      1324
      1316      1315      1318      1319      1316      1315      1318      1320
      1316      1315      1318      1321      1317      1315      1318      1319
      1317      1315      1318      1320      1317      1315      1318      1321
      1318      1321      1324      1325      1318      1321      1324      1326
      1318      1321      1324      1327      1319      1318      1321      1322
      1319      1318      1321      1323      1319      1318      1321      1324
      1320      1318      1321      1322      1320      1318      1321      1323
      1320      1318      1321      1324      1322      1321      1324      1325
      1322      1321      1324      1326      1322      1321      1324      1327
      1323      1321      1324      1325      1323      1321      1324      1326
      1323      1321      1324      1327      1328      1341      1344      1345
      1328      1341      1344      1346      1328      1341      1344      1351
      1329      1328      1333      1334      1329      1328      1333      1335
      1329      1328      1333      1336      1329      1328      1337      1338
      1329      1328      1337      1339      1329      1328      1337      1340
      1329      1328      1341      1342      1329      1328      1341      1343
      1329      1328      1341      1344      1330      1329      1328      1333
      1330      1329      1328      1337      1330      1329      1328      1341
      1331      1329      1328      1333      1331      1329      1328      1337
      1331      1329      1328      1341      1332      1329      1328      1333
      1332      1329      1328      1337      1332      1329      1328      1341
      1333      1328      1337      1338      1333      1328      1337      1339
      1333      1328      1337      1340      1333      1328      1341      1342
      1333      1328      1341      1343      1333      1328      1341      1344
      1334      1333      1328      1337      1334      1333      1328      1341
      1335      1333      1328      1337      1335      1333      1328      1341
      1336      1333      1328      1337      1336      1333      1328      1341
      1337      1328      1341      1342      1337      1328      1341      1343
      1337      1328      1341      1344      1338      1337      1328      1341
      1339      1337      1328      1341      1340      1337      1328      1341
      1341      1344      1351      1347      1342      1341      1344      1345
      1342      1341      1344      1346      1342      1341      1344      1351
      1343      1341      1344      1345      1343      1341      1344      1346
      1343      1341      1344      1351      1344      1351      1347      1348
      1344      1351      1347      1349      1344      1351      1347      1350
      1345      1344      1351      1347      1346      1344      1351      1347
      1347      1350      1352      1353      1347      1350      1352      1354
      1347      1350      1352      1357      1348      1347      1350      1352
      1349      1347      1350      1352      1350      1352      1357      1355
      1350      1352      1357      1358      1350      1352      1357      1359
      1351      1347      1350      1352      1352      1357      1355      1356
      1352      1357      1355      1407      1352      1357      1359      1360
      1352      1357      1359      1361      1352      1357      1359      1363
      1353      1352      1357      1355      1353      1352      1357      1358
      1353      1352      1357      1359      1354      1352      1357      1355
      1354      1352      1357      1358      1354      1352      1357      1359
      1355      1357      1359      1360      1355      1357      1359      1361
      1355      1357      1359      1363      1355      1407      1409      1410
      1355      1407      1409      1411      1355      1407      1409      1412
      1356      1355      1357      1358      1356      1355      1357      1359
      1356      1355      1407      1408      1356      1355      1407      1409
      1357      1355      1407      1408      1357      1355      1407      1409
      1357      1359      1361      1362      1357      1359      1363      1364
      1357      1359      1363      1365      1358      1357      1355      1407
      1358      1357      1359      1360      1358      1357      1359      1361
      1358      1357      1359      1363      1359      1357      1355      1407
      1359      1363      1365      1366      1359      1363      1365      1367
      1360      1359      1361      1362      1360      1359      1363      1364
      1360      1359      1363      1365      1361      1359      1363      1364
      1361      1359      1363      1365      1362      1361      1359      1363
      1363      1365      1367      1368      1363      1365      1367      1369
      1363      1365      1367      1370      1364      1363      1365      1366
      1364      1363      1365      1367      1365      1367      1370      1371
      1365      1367      1370      1372      1365      1367      1370      1373
      1366      1365      1367      1368      1366      1365      1367      1369
      1366      1365      1367      1370      1367      1370      1373      1374
      1367      1370      1373      1375      1367      1370      1373      1376
      1368      1367      1370      1371      1368      1367      1370      1372
      1368      1367      1370      1373      1369      1367      1370      1371
      1369      1367      1370      1372      1369      1367      1370      1373
      1370      1373      1376      1377      1370      1373      1376      1378
      1370      1373      1376      1379      1371      1370      1373      1374
      1371      1370      1373      1375      1371      1370      1373      1376
      1372      1370      1373      1374      1372      1370      1373      1375
      1372      1370      1373      1376      1373      1376      1379      1380
      1373      1376      1379      1381      1373      1376      1379      1382
      1374      1373      1376      1377      1374      1373      1376      1378
      1374      1373      1376      1379      1375      1373      1376      1377
      1375      1373      1376      1378      1375      1373      1376      1379
      1376      1379      1382      1383      1376      1379      1382      1384
      1376      1379      1382      1385      1377      1376      1379      1380
      1377      1376      1379      1381      1377      1376      1379      1382
      1378      1376      1379      1380      1378      1376      1379      1381
      1378      1376      1379      1382      1379      1382      1385      1386
      1379      1382      1385      1387      1379      1382      1385      1388
      1380      1379      1382      1383      1380      1379      1382      1384
      1380      1379      1382      1385      1381      1379      1382      1383
      1381      1379      1382      1384      1381      1379      1382      1385
      1382      1385      1388      1389      1382      1385      1388      1390
      1382      1385      1388      1391      1383      1382      1385      1386
      1383      1382      1385      1387      1383      1382      1385      1388
      1384      1382      1385      1386      1384      1382      1385      1387
      1384      1382      1385      1388      1385      1388      1391      1392
      1385      1388      1391      1393      1385      1388      1391      1394
      1386      1385      1388      1389      1386      1385      1388      1390
      1386      1385      1388      1391      1387      1385      1388      1389
      1387      1385      1388      1390      1387      1385      1388      1391
      1388      1391      1394      1395      1388      1391      1394      1396
      1388      1391      1394      1397      1389      1388      1391      1392
      1389      1388      1391      1393      1389      1388      1391      1394
      1390      1388      1391      1392      1390      1388      1391      1393
      1390      1388      1391      1394      1391      1394      1397      1398
      1391      1394      1397      1399      1391      1394      1397      1400
      1392      1391      1394      1395      1392      1391      1394      1396
      1392      1391      1394      1397      1393      1391      1394      1395
      1393      1391      1394      1396      1393      1391      1394      1397
      1394      1397      1400      1401      1394      1397      1400      1402
      1394      1397      1400      1403      1395      1394      1397      1398
      1395      1394      1397      1399      1395      1394      1397      1400
      1396      1394      1397      1398      1396      1394      1397      1399
      1396      1394      1397      1400      1397      1400      1403      1404
      1397      1400      1403      1405      1397      1400      1403      1406
      1398      1397      1400      1401      1398      1397      1400      1402
      1398      1397      1400      1403      1399      1397      1400      1401
      1399      1397      1400      1402      1399      1397      1400      1403
      1401      1400      1403      1404      1401      1400      1403      1405
      1401      1400      1403      1406      1402      1400      1403      1404
      1402      1400      1403      1405      1402      1400      1403      1406
      1407      1409      1412      1413      1407      1409      1412      1414
      1407      1409      1412      1415      1408      1407      1409      1410
      1408      1407      1409      1411      1408      1407      1409      1412
      1409      1412      1415      1416      1409      1412      1415      1417
      1409      1412      1415      1418      1410      1409      1412      1413
      1410      1409      1412      1414      1410      1409      1412      1415
      1411      1409      1412      1413      1411      1409      1412      1414
      1411      1409      1412      1415      1412      1415      1418      1419
      1412      1415      1418      1420      1412      1415      1418      1421
      1413      1412      1415      1416      1413      1412      1415      1417
      1413      1412      1415      1418      1414      1412      1415      1416
      1414      1412      1415      1417      1414      1412      1415      1418
      1415      1418      1421      1422      1415      1418      1421      1423
      1415      1418      1421      1424      1416      1415      1418      1419
      1416      1415      1418      1420      1416      1415      1418      1421
      1417      1415      1418      1419      1417      1415      1418      1420
      1417      1415      1418      1421      1418      1421      1424      1425
      1418      1421      1424      1426      1418      1421      1424      1427
      1419      1418      1421      1422      1419      1418      1421      1423
      1419      1418      1421      1424      1420      1418      1421      1422
      1420      1418      1421      1423      1420      1418      1421      1424
      1421      1424      1427      1428      1421      1424      1427      1429
      1421      1424      1427      1430      1422      1421      1424      1425
      1422      1421      1424      1426      1422      1421      1424      1427
      1423      1421      1424      1425      1423      1421      1424      1426
      1423      1421      1424      1427      1424      1427      1430      1431
      1424      1427      1430      1432      1425      1424      1427      1428
      1425      1424      1427      1429      1425      1424      1427      1430
      1426      1424      1427      1428      1426      1424      1427      1429
      1426      1424      1427      1430      1427      1430      1432      1433
      1427      1430      1432      1434      1428      1427      1430      1431
      1428      1427      1430      1432      1429      1427      1430      1431
      1429      1427      1430      1432      1430      1432      1434      1435
      1430      1432      1434      1436      1430      1432      1434      1437
      1431      1430      1432      1433      1431      1430      1432      1434
      1432      1434      1437      1438      1432      1434      1437      1439
      1432      1434      1437      1440      1433      1432      1434      1435
      1433      1432      1434      1436      1433      1432      1434      1437
      1434      1437      1440      1441      1434      1437      1440      1442
      1434      1437      1440      1443      1435      1434      1437      1438
      1435      1434      1437      1439      1435      1434      1437      1440
      1436      1434      1437      1438      1436      1434      1437      1439
      1436      1434      1437      1440      1437      1440      1443      1444
      1437      1440      1443      1445      1437      1440      1443      1446
      1438      1437      1440      1441      1438      1437      1440      1442
      1438      1437      1440      1443      1439      1437      1440      1441
      1439      1437      1440      1442      1439      1437      1440      1443
      1440      1443      1446      1447      1440      1443      1446      1448
      1440      1443      1446      1449      1441      1440      1443      1444
      1441      1440      1443      1445      1441      1440      1443      1446
      1442      1440      1443      1444      1442      1440      1443      1445
      1442      1440      1443      1446      1443      1446      1449      1450
      1443      1446      1449      1451      1443      1446      1449      1452
      1444      1443      1446      1447      1444      1443      1446      1448
      1444      1443      1446      1449      1445      1443      1446      1447
      1445      1443      1446      1448      1445      1443      1446      1449
      1446      1449      1452      1453      1446      1449      1452      1454
      1446      1449      1452      1455      1447      1446      1449      1450
      1447      1446      1449      1451      1447      1446      1449      1452
      1448      1446      1449      1450      1448      1446      1449      1451
      1448      1446      1449      1452      1449      1452      1455      1456
      1449      1452      1455      1457      1449      1452      1455      1458
      1450      1449      1452      1453      1450      1449      1452      1454
      1450      1449      1452      1455      1451      1449      1452      1453
      1451      1449      1452      1454      1451      1449      1452      1455
      1453      1452      1455      1456      1453      1452      1455      1457
      1453      1452      1455      1458      1454      1452      1455      1456
      1454      1452      1455      1457      1454      1452      1455      1458
      1459      1463      1465      1466      1459      1463      1465      1467
      1459      1463      1468      1469      1459      1463      1468      1470
      1459      1463      1468      1474      1460      1459      1463      1464
      1460      1459      1463      1465      1460      1459      1463      1468
      1461      1459      1463      1464      1461      1459      1463      1465
      1461      1459      1463      1468      1462      1459      1463      1464
      1462      1459      1463      1465      1462      1459      1463      1468
      1463      1468      1474      1471      1464      1463      1465      1466
      1464      1463      1465      1467      1464      1463      1468      1469
      1464      1463      1468      1470      1464      1463      1468      1474
      1465      1463      1468      1469      1465      1463      1468      1470
      1465      1463      1468      1474      1466      1465      1463      1468
      1467      1465      1463      1468      1468      1474      1471      1472
      1468      1474      1471      1473      1468      1474      1471      1475
      1469      1468      1474      1471      1470      1468      1474      1471
      1471      1475      1476      1477      1471      1475      1476      1478
      1471      1475      1476      1479      1472      1471      1475      1476
      1473      1471      1475      1476      1474      1471      1475      1476
      1475      1476      1479      1480      1475      1476      1479      1481
      1475      1476      1479      1487      1476      1479      1481      1482
      1476      1479      1487      1488      1476      1479      1487      1489
      1476      1479      1487      1490      1477      1476      1479      1480
      1477      1476      1479      1481      1477      1476      1479      1487
      1478      1476      1479      1480      1478      1476      1479      1481
      1478      1476      1479      1487      1479      1481      1482      1483
      1479      1481      1482      1484      1479      1487      1490      1491
      1480      1479      1481      1482      1480      1479      1487      1488
      1480      1479      1487      1489      1480      1479      1487      1490
      1481      1479      1487      1488      1481      1479      1487      1489
      1481      1479      1487      1490      1481      1482      1484      1485
      1481      1482      1484      1486      1481      1482      1484      1496
      1482      1481      1479      1487      1482      1484      1496      1497
      1482      1484      1496      1498      1482      1484      1496      1499
      1483      1482      1484      1485      1483      1482      1484      1486
      1483      1482      1484      1496      1484      1496      1499      1500
      1484      1496      1499      1501      1484      1496      1499      1502
      1485      1484      1496      1497      1485      1484      1496      1498
      1485      1484      1496      1499      1486      1484      1496      1497
      1486      1484      1496      1498      1486      1484      1496      1499
      1487      1490      1491      1492      1487      1490      1491      1493
      1488      1487      1490      1491      1489      1487      1490      1491
      1490      1491      1493      1494      1490      1491      1493      1495
      1490      1491      1493      1543      1491      1493      1543      1544
      1491      1493      1543      1545      1491      1493      1543      1546
      1492      1491      1493      1494      1492      1491      1493      1495
      1492      1491      1493      1543      1493      1543      1546      1547
      1493      1543      1546      1548      1493      1543      1546      1549
      1494      1493      1543      1544      1494      1493      1543      1545
      1494      1493      1543      1546      1495      1493      1543      1544
      1495      1493      1543      1545      1495      1493      1543      1546
      1496      1499      1502      1503      1496      1499      1502      1504
      1497      1496      1499      1500      1497      1496      1499      1501
      1497      1496      1499      1502      1498      1496      1499      1500
      1498      1496      1499      1501      1498      1496      1499      1502
      1499      1502      1504      1505      1499      1502      1504      1506
      1500      1499      1502      1503      1500      1499      1502      1504
      1501      1499      1502      1503      1501      1499      1502      1504
      1502      1504      1506      1507      1502      1504      1506      1508
      1502      1504      1506      1509      1503      1502      1504      1505
      1503      1502      1504      1506      1504      1506      1509      1510
      1504      1506      1509      1511      1505      1504      1506      1507
      1505      1504      1506      1508      1505      1504      1506      1509
      1506      1509      1511      1512      1506      1509      1511      1513
      1507      1506      1509      1510      1507      1506      1509      1511
      1508      1506      1509      1510      1508      1506      1509      1511
      1509      1511      1513      1514      1509      1511      1513      1515
      1509      1511      1513      1516      1510      1509      1511      1512
      1510      1509      1511      1513      1511      1513      1516      1517
      1511      1513      1516      1518      1512      1511      1513      1514
      1512      1511      1513      1515      1512      1511      1513      1516
      1513      1516      1518      1519      1513      1516      1518      1520
      1514      1513      1516      1517      1514      1513      1516      1518
      1515      1513      1516      1517      1515      1513      1516      1518
      1516      1518      1520      1521      1516      1518      1520      1522
      1516      1518      1520      1523      1517      1516      1518      1519
      1517      1516      1518      1520      1518      1520      1523      1524
      1518      1520      1523      1525      1519      1518      1520      1521
      1519      1518      1520      1522      1519      1518      1520      1523
      1520      1523      1525      1526      1520      1523      1525      1527
      1521      1520      1523      1524      1521      1520      1523      1525
      1522      1520      1523      1524      1522      1520      1523      1525
      1523      1525      1527      1528      1523      1525      1527      1529
      1523      1525      1527      1530      1524      1523      1525      1526
      1524      1523      1525      1527      1525      1527      1530      1531
      1525      1527      1530      1532      1525      1527      1530      1533
      1526      1525      1527      1528      1526      1525      1527      1529
      1526      1525      1527      1530      1527      1530      1533      1534
      1527      1530      1533      1535      1527      1530      1533      1536
      1528      1527      1530      1531      1528      1527      1530      1532
      1528      1527      1530      1533      1529      1527      1530      1531
      1529      1527      1530      1532      1529      1527      1530      1533
      1530      1533      1536      1537      1530      1533      1536      1538
      1530      1533      1536      1539      1531      1530      1533      1534
      1531      1530      1533      1535      1531      1530      1533      1536
      1532      1530      1533      1534      1532      1530      1533      1535
      1532      1530      1533      1536      1533      1536      1539      1540
      1533      1536      1539      1541      1533      1536      1539      1542
      1534      1533      1536      1537      1534      1533      1536      1538
      1534      1533      1536      1539      1535      1533      1536      1537
      1535      1533      1536      1538      1535      1533      1536      1539
      1537      1536      1539      1540      1537      1536      1539      1541
      1537      1536      1539      1542      1538      1536      1539      1540
      1538      1536      1539      1541      1538      1536      1539      1542
      1543      1546      1549      1550      1543      1546      1549      1551
      1543      1546      1549      1552      1544      1543      1546      1547
      1544      1543      1546      1548      1544      1543      1546      1549
      1545      1543      1546      1547      1545      1543      1546      1548
      1545      1543      1546      1549      1546      1549      1552      1553
      1546      1549      1552      1554      1546      1549      1552      1555
      1547      1546      1549      1550      1547      1546      1549      1551
      1547      1546      1549      1552      1548      1546      1549      1550
      1548      1546      1549      1551      1548      1546      1549      1552
      1549      1552      1555      1556      1549      1552      1555      1557
      1549      1552      1555      1558      1550      1549      1552      1553
      1550      1549      1552      1554      1550      1549      1552      1555
      1551      1549      1552      1553      1551      1549      1552      1554
      1551      1549      1552      1555      1552      1555      1558      1559
      1552      1555      1558      1560      1552      1555      1558      1561
      1553      1552      1555      1556      1553      1552      1555      1557
      1553      1552      1555      1558      1554      1552      1555      1556
      1554      1552      1555      1557      1554      1552      1555      1558
      1555      1558      1561      1562      1555      1558      1561      1563
      1555      1558      1561      1564      1556      1555      1558      1559
      1556      1555      1558      1560      1556      1555      1558      1561
      1557      1555      1558      1559      1557      1555      1558      1560
      1557      1555      1558      1561      1558      1561      1564      1565
      1558      1561      1564      1566      1558      1561      1564      1567
      1559      1558      1561      1562      1559      1558      1561      1563
      1559      1558      1561      1564      1560      1558      1561      1562
      1560      1558      1561      1563      1560      1558      1561      1564
      1561      1564      1567      1568      1561      1564      1567      1569
      1561      1564      1567      1570      1562      1561      1564      1565
      1562      1561      1564      1566      1562      1561      1564      1567
      1563      1561      1564      1565      1563      1561      1564      1566
      1563      1561      1564      1567      1564      1567      1570      1571
      1564      1567      1570      1572      1564      1567      1570      1573
      1565      1564      1567      1568      1565      1564      1567      1569
      1565      1564      1567      1570      1566      1564      1567      1568
      1566      1564      1567      1569      1566      1564      1567      1570
      1567      1570      1573      1574      1567      1570      1573      1575
      1567      1570      1573      1576      1568      1567      1570      1571
      1568      1567      1570      1572      1568      1567      1570      1573
      1569      1567      1570      1571      1569      1567      1570      1572
      1569      1567      1570      1573      1570      1573      1576      1577
      1570      1573      1576      1578      1570      1573      1576      1579
      1571      1570      1573      1574      1571      1570      1573      1575
      1571      1570      1573      1576      1572      1570      1573      1574
      1572      1570      1573      1575      1572      1570      1573      1576
      1573      1576      1579      1580      1573      1576      1579      1581
      1573      1576      1579      1582      1574      1573      1576      1577
      1574      1573      1576      1578      1574      1573      1576      1579
      1575      1573      1576      1577      1575      1573      1576      1578
      1575      1573      1576      1579      1576      1579      1582      1583
      1576      1579      1582      1584      1576      1579      1582      1585
      1577      1576      1579      1580      1577      1576      1579      1581
      1577      1576      1579      1582      1578      1576      1579      1580
      1578      1576      1579      1581      1578      1576      1579      1582
      1579      1582      1585      1586      1579      1582      1585      1587
      1579      1582      1585      1588      1580      1579      1582      1583
      1580      1579      1582      1584      1580      1579      1582      1585
      1581      1579      1582      1583      1581      1579      1582      1584
      1581      1579      1582      1585      1582      1585      1588      1589
      1582      1585      1588      1590      1582      1585      1588      1591
      1583      1582      1585      1586      1583      1582      1585      1587
      1583      1582      1585      1588      1584      1582      1585      1586
      1584      1582      1585      1587      1584      1582      1585      1588
      1586      1585      1588      1589      1586      1585      1588      1590
      1586      1585      1588      1591      1587      1585      1588      1589
      1587      1585      1588      1590      1587      1585      1588      1591
      1592      1605      1608      1609      1592      1605      1608      1610
      1592      1605      1608      1615      1593      1592      1597      1598
      1593      1592      1597      1599      1593      1592      1597      1600
      1593      1592      1601      1602      1593      1592      1601      1603
      1593      1592      1601      1604      1593      1592      1605      1606
      1593      1592      1605      1607      1593      1592      1605      1608
      1594      1593      1592      1597      1594      1593      1592      1601
      1594      1593      1592      1605      1595      1593      1592      1597
      1595      1593      1592      1601      1595      1593      1592      1605
      1596      1593      1592      1597      1596      1593      1592      1601
      1596      1593      1592      1605      1597      1592      1601      1602
      1597      1592      1601      1603      1597      1592      1601      1604
      1597      1592      1605      1606      1597      1592      1605      1607
      1597      1592      1605      1608      1598      1597      1592      1601
      1598      1597      1592      1605      1599      1597      1592      1601
      1599      1597      1592      1605      1600      1597      1592      1601
      1600      1597      1592      1605      1601      1592      1605      1606
      1601      1592      1605      1607      1601      1592      1605      1608
      1602      1601      1592      1605      1603      1601      1592      1605
      1604      1601      1592      1605      1605      1608      1615      1611
      1606      1605      1608      1609      1606      1605      1608      1610
      1606      1605      1608      1615      1607      1605      1608      1609
      1607      1605      1608      1610      1607      1605      1608      1615
      1608      1615      1611      1612      1608      1615      1611      1613
      1608      1615      1611      1614      1609      1608      1615      1611
      1610      1608      1615      1611      1611      1614      1616      1617
      1611      1614      1616      1618      1611      1614      1616      1621
      1612      1611      1614      1616      1613      1611      1614      1616
      1614      1616      1621      1619      1614      1616      1621      1622
      1614      1616      1621      1623      1615      1611      1614      1616
      1616      1621      1619      1620      1616      1621      1619      1671
      1616      1621      1623      1624      1616      1621      1623      1625
      1616      1621      1623      1627      1617      1616      1621      1619
      1617      1616      1621      1622      1617      1616      1621      1623
      1618      1616      1621      1619      1618      1616      1621      1622
      1618      1616      1621      1623      1619      1621      1623      1624
      1619      1621      1623      1625      1619      1621      1623      1627
      1619      1671      1673      1674      1619      1671      1673      1675
      1619      1671      1673      1676      1620      1619      1621      1622
      1620      1619      1621      1623      1620      1619      1671      1672
      1620      1619      1671      1673      1621      1619      1671      1672
      1621      1619      1671      1673      1621      1623      1625      1626
      1621      1623      1627      1628      1621      1623      1627      1629
      1622      1621      1619      1671      1622      1621      1623      1624
      1622      1621      1623      1625      1622      1621      1623      1627
      1623      1621      1619      1671      1623      1627      1629      1630
      1623      1627      1629      1631      1624      1623      1625      1626
      1624      1623      1627      1628      1624      1623      1627      1629
      1625      1623      1627      1628      1625      1623      1627      1629
      1626      1625      1623      1627      1627      1629      1631      1632
      1627      1629      1631      1633      1627      1629      1631      1634
      1628      1627      1629      1630      1628      1627      1629      1631
      1629      1631      1634      1635      1629      1631      1634      1636
      1629      1631      1634      1637      1630      1629      1631      1632
      1630      1629      1631      1633      1630      1629      1631      1634
      1631      1634      1637      1638      1631      1634      1637      1639
      1631      1634      1637      1640      1632      1631      1634      1635
      1632      1631      1634      1636      1632      1631      1634      1637
      1633      1631      1634      1635      1633      1631      1634      1636
      1633      1631      1634      1637      1634      1637      1640      1641
      1634      1637      1640      1642      1634      1637      1640      1643
      1635      1634      1637      1638      1635      1634      1637      1639
      1635      1634      1637      1640      1636      1634      1637      1638
      1636      1634      1637      1639      1636      1634      1637      1640
      1637      1640      1643      1644      1637      1640      1643      1645
      1637      1640      1643      1646      1638      1637      1640      1641
      1638      1637      1640      1642      1638      1637      1640      1643
      1639      1637      1640      1641      1639      1637      1640      1642
      1639      1637      1640      1643      1640      1643      1646      1647
      1640      1643      1646      1648      1640      1643      1646      1649
      1641      1640      1643      1644      1641      1640      1643      1645
      1641      1640      1643      1646      1642      1640      1643      1644
      1642      1640      1643      1645      1642      1640      1643      1646
      1643      1646      1649      1650      1643      1646      1649      1651
      1643      1646      1649      1652      1644      1643      1646      1647
      1644      1643      1646      1648      1644      1643      1646      1649
      1645      1643      1646      1647      1645      1643      1646      1648
      1645      1643      1646      1649      1646      1649      1652      1653
      1646      1649      1652      1654      1646      1649      1652      1655
      1647      1646      1649      1650      1647      1646      1649      1651
      1647      1646      1649      1652      1648      1646      1649      1650
      1648      1646      1649      1651      1648      1646      1649      1652
      1649      1652      1655      1656      1649      1652      1655      1657
      1649      1652      1655      1658      1650      1649      1652      1653
      1650      1649      1652      1654      1650      1649      1652      1655
      1651      1649      1652      1653      1651      1649      1652      1654
      1651      1649      1652      1655      1652      1655      1658      1659
      1652      1655      1658      1660      1652      1655      1658      1661
      1653      1652      1655      1656      1653      1652      1655      1657
      1653      1652      1655      1658      1654      1652      1655      1656
      1654      1652      1655      1657      1654      1652      1655      1658
      1655      1658      1661      1662      1655      1658      1661      1663
      1655      1658      1661      1664      1656      1655      1658      1659
      1656      1655      1658      1660      1656      1655      1658      1661
      1657      1655      1658      1659      1657      1655      1658      1660
      1657      1655      1658      1661      1658      1661      1664      1665
      1658      1661      1664      1666      1658      1661      1664      1667
      1659      1658      1661      1662      1659      1658      1661      1663
      1659      1658      1661      1664      1660      1658      1661      1662
      1660      1658      1661      1663      1660      1658      1661      1664
      1661      1664      1667      1668      1661      1664      1667      1669
      1661      1664      1667      1670      1662      1661      1664      1665
      1662      1661      1664      1666      1662      1661      1664      1667
      1663      1661      1664      1665      1663      1661      1664      1666
      1663      1661      1664      1667      1665      1664      1667      1668
      1665      1664      1667      1669      1665      1664      1667      1670
      1666      1664      1667      1668      1666      1664      1667      1669
      1666      1664      1667      1670      1671      1673      1676      1677
      1671      1673      1676      1678      1671      1673      1676      1679
      1672      1671      1673      1674      1672      1671      1673      1675
      1672      1671      1673      1676      1673      1676      1679      1680
      1673      1676      1679      1681      1673      1676      1679      1682
      1674      1673      1676      1677      1674      1673      1676      1678
      1674      1673      1676      1679      1675      1673      1676      1677
      1675      1673      1676      1678      1675      1673      1676      1679
      1676      1679      1682      1683      1676      1679      1682      1684
      1676      1679      1682      1685      1677      1676      1679      1680
      1677      1676      1679      1681      1677      1676      1679      1682
      1678      1676      1679      1680      1678      1676      1679      1681
      1678      1676      1679      1682      1679      1682      1685      1686
      1679      1682      1685      1687      1679      1682      1685      1688
      1680      1679      1682      1683      1680      1679      1682      1684
      1680      1679      1682      1685      1681      1679      1682      1683
      1681      1679      1682      1684      1681      1679      1682      1685
      1682      1685      1688      1689      1682      1685      1688      1690
      1682      1685      1688      1691      1683      1682      1685      1686
      1683      1682      1685      1687      1683      1682      1685      1688
      1684      1682      1685      1686      1684      1682      1685      1687
      1684      1682      1685      1688      1685      1688      1691      1692
      1685      1688      1691      1693      1685      1688      1691      1694
      1686      1685      1688      1689      1686      1685      1688      1690
      1686      1685      1688      1691      1687      1685      1688      1689
      1687      1685      1688      1690      1687      1685      1688      1691
      1688      1691      1694      1695      1688      1691      1694      1696
      1689      1688      1691      1692      1689      1688      1691      1693
      1689      1688      1691      1694      1690      1688      1691      1692
      1690      1688      1691      1693      1690      1688      1691      1694
      1691      1694      1696      1697      1691      1694      1696      1698
      1692      1691      1694      1695      1692      1691      1694      1696
      1693      1691      1694      1695      1693      1691      1694      1696
      1694      1696      1698      1699      1694      1696      1698      1700
      1694      1696      1698      1701      1695      1694      1696      1697
      1695      1694      1696      1698      1696      1698      1701      1702
      1696      1698      1701      1703      1696      1698      1701      1704
      1697      1696      1698      1699      1697      1696      1698      1700
      1697      1696      1698      1701      1698      1701      1704      1705
      1698      1701      1704      1706      1698      1701      1704      1707
      1699      1698      1701      1702      1699      1698      1701      1703
      1699      1698      1701      1704      1700      1698      1701      1702
      1700      1698      1701      1703      1700      1698      1701      1704
      1701      1704      1707      1708      1701      1704      1707      1709
      1701      1704      1707      1710      1702      1701      1704      1705
      1702      1701      1704      1706      1702      1701      1704      1707
      1703      1701      1704      1705      1703      1701      1704      1706
      1703      1701      1704      1707      1704      1707      1710      1711
      1704      1707      1710      1712      1704      1707      1710      1713
      1705      1704      1707      1708      1705      1704      1707      1709
      1705      1704      1707      1710      1706      1704      1707      1708
      1706      1704      1707      1709      1706      1704      1707      1710
      1707      1710      1713      1714      1707      1710      1713      1715
      1707      1710      1713      1716      1708      1707      1710      1711
      1708      1707      1710      1712      1708      1707      1710      1713
      1709      1707      1710      1711      1709      1707      1710      1712
      1709      1707      1710      1713      1710      1713      1716      1717
      1710      1713      1716      1718      1710      1713      1716      1719
      1711      1710      1713      1714      1711      1710      1713      1715
      1711      1710      1713      1716      1712      1710      1713      1714
      1712      1710      1713      1715      1712      1710      1713      1716
      1713      1716      1719      1720      1713      1716      1719      1721
      1713      1716      1719      1722      1714      1713      1716      1717
      1714      1713      1716      1718      1714      1713      1716      1719
      1715      1713      1716      1717      1715      1713      1716      1718
      1715      1713      1716      1719      1717      1716      1719      1720
      1717      1716      1719      1721      1717      1716      1719      1722
      1718      1716      1719      1720      1718      1716      1719      1721
      1718      1716      1719      1722      1723      1727      1730      1731
      1723      1727      1730      1761      1723      1769      1766      1761
      1723      1769      1766      1767      1723      1769      1766      1768
      1724      1723      1725      1726      1724      1723      1727      1728
      1724      1723      1727      1729      1724      1723      1727      1730
      1724      1723      1769      1766      1724      1723      1769      1770
      1724      1723      1769      1771      1725      1723      1727      1728
      1725      1723      1727      1729      1725      1723      1727      1730
      1725      1723      1769      1766      1725      1723      1769      1770
      1725      1723      1769      1771      1726      1725      1723      1727
      1726      1725      1723      1769      1727      1723      1769      1766
      1727      1723      1769      1770      1727      1723      1769      1771
      1727      1730      1731      1732      1727      1730      1731      1733
      1727      1730      1761      1759      1727      1730      1761      1762
      1727      1730      1761      1766      1728      1727      1723      1769
      1728      1727      1730      1731      1728      1727      1730      1761
      1729      1727      1723      1769      1729      1727      1730      1731
      1729      1727      1730      1761      1730      1727      1723      1769
      1730      1731      1733      1734      1730      1731      1733      1735
      1730      1731      1733      1736      1730      1761      1759      1736
      1730      1761      1759      1756      1730      1761      1759      1760
      1730      1761      1762      1763      1730      1761      1762      1764
      1730      1761      1762      1765      1730      1761      1766      1767
      1730      1761      1766      1768      1730      1761      1766      1769
      1731      1730      1761      1759      1731      1730      1761      1762
      1731      1730      1761      1766      1731      1733      1736      1737
      1731      1733      1736      1738      1731      1733      1736      1759
      1732      1731      1730      1761      1732      1731      1733      1734
      1732      1731      1733      1735      1732      1731      1733      1736
      1733      1731      1730      1761      1733      1736      1738      1739
      1733      1736      1738      1740      1733      1736      1738      1748
      1733      1736      1759      1756      1733      1736      1759      1760
      1733      1736      1759      1761      1734      1733      1736      1737
      1734      1733      1736      1738      1734      1733      1736      1759
      1735      1733      1736      1737      1735      1733      1736      1738
      1735      1733      1736      1759      1736      1738      1740      1741
      1736      1738      1740      1742      1736      1738      1740      1743
      1736      1738      1748      1746      1736      1738      1748      1749
      1736      1738      1748      1753      1736      1759      1756      1753
      1736      1759      1756      1757      1736      1759      1756      1758
      1736      1759      1761      1762      1736      1759      1761      1766
      1737      1736      1738      1739      1737      1736      1738      1740
      1737      1736      1738      1748      1737      1736      1759      1756
      1737      1736      1759      1760      1737      1736      1759      1761
      1738      1736      1759      1756      1738      1736      1759      1760
      1738      1736      1759      1761      1738      1740      1743      1744
      1738      1740      1743      1745      1738      1740      1743      1746
      1738      1748      1746      1743      1738      1748      1746      1747
      1738      1748      1746      1772      1738      1748      1749      1750
      1738      1748      1749      1751      1738      1748      1749      1752
      1738      1748      1753      1754      1738      1748      1753      1755
      1738      1748      1753      1756      1739      1738      1736      1759
      1739      1738      1740      1741      1739      1738      1740      1742
      1739      1738      1740      1743      1739      1738      1748      1746
      1739      1738      1748      1749      1739      1738      1748      1753
      1740      1738      1736      1759      1740      1738      1748      1746
      1740      1738      1748      1749      1740      1738      1748      1753
      1740      1743      1746      1747      1740      1743      1746      1748
      1740      1743      1746      1772      1741      1740      1738      1748
      1741      1740      1743      1744      1741      1740      1743      1745
      1741      1740      1743      1746      1742      1740      1738      1748
      1742      1740      1743      1744      1742      1740      1743      1745
      1742      1740      1743      1746      1743      1740      1738      1748
      1743      1746      1748      1749      1743      1746      1748      1753
      1743      1746      1772      1773      1743      1746      1772      1774
      1743      1746      1772      1778      1744      1743      1746      1747
      1744      1743      1746      1748      1744      1743      1746      1772
      1745      1743      1746      1747      1745      1743      1746      1748
      1745      1743      1746      1772      1746      1748      1749      1750
      1746      1748      1749      1751      1746      1748      1749      1752
      1746      1748      1753      1754      1746      1748      1753      1755
      1746      1748      1753      1756      1746      1772      1774      1775
      1746      1772      1774      1776      1746      1772      1774      1777
      1746      1772      1778      1779      1746      1772      1778      1780
      1746      1772      1778      1781      1747      1746      1748      1749
      1747      1746      1748      1753      1747      1746      1772      1773
      1747      1746      1772      1774      1747      1746      1772      1778
      1748      1738      1736      1759      1748      1746      1772      1773
      1748      1746      1772      1774      1748      1746      1772      1778
      1748      1753      1756      1757      1748      1753      1756      1758
      1748      1753      1756      1759      1749      1748      1746      1772
      1749      1748      1753      1754      1749      1748      1753      1755
      1749      1748      1753      1756      1750      1749      1748      1753
      1751      1749      1748      1753      1752      1749      1748      1753
      1753      1748      1746      1772      1753      1756      1759      1760
      1753      1756      1759      1761      1754      1753      1756      1757
      1754      1753      1756      1758      1754      1753      1756      1759
      1755      1753      1756      1757      1755      1753      1756      1758
      1755      1753      1756      1759      1756      1759      1761      1762
      1756      1759      1761      1766      1757      1756      1759      1760
      1757      1756      1759      1761      1758      1756      1759      1760
      1758      1756      1759      1761      1759      1761      1762      1763
      1759      1761      1762      1764      1759      1761      1762      1765
      1759      1761      1766      1767      1759      1761      1766      1768
      1759      1761      1766      1769      1760      1759      1761      1762
      1760      1759      1761      1766      1761      1766      1769      1770
      1761      1766      1769      1771      1762      1761      1766      1767
      1762      1761      1766      1768      1762      1761      1766      1769
      1763      1762      1761      1766      1764      1762      1761      1766
      1765      1762      1761      1766      1767      1766      1769      1770
      1767      1766      1769      1771      1768      1766      1769      1770
      1768      1766      1769      1771      1772      1778      1781      1782
      1772      1778      1781      1783      1772      1778      1781      1784
      1773      1772      1774      1775      1773      1772      1774      1776
      1773      1772      1774      1777      1773      1772      1778      1779
      1773      1772      1778      1780      1773      1772      1778      1781
      1774      1772      1778      1779      1774      1772      1778      1780
      1774      1772      1778      1781      1775      1774      1772      1778
      1776      1774      1772      1778      1777      1774      1772      1778
      1778      1781      1784      1785      1778      1781      1784      1786
      1778      1781      1784      1787      1779      1778      1781      1782
      1779      1778      1781      1783      1779      1778      1781      1784
      1780      1778      1781      1782      1780      1778      1781      1783
      1780      1778      1781      1784      1781      1784      1787      1788
      1781      1784      1787      1789      1781      1784      1787      1793
      1782      1781      1784      1785      1782      1781      1784      1786
      1782      1781      1784      1787      1783      1781      1784      1785
      1783      1781      1784      1786      1783      1781      1784      1787
      1784      1787      1789      1790      1784      1787      1789      1791
      1784      1787      1789      1792      1784      1787      1793      1794
      1784      1787      1793      1795      1784      1787      1793      1796
      1785      1784      1787      1788      1785      1784      1787      1789
      1785      1784      1787      1793      1786      1784      1787      1788
      1786      1784      1787      1789      1786      1784      1787      1793
      1788      1787      1789      1790      1788      1787      1789      1791
      1788      1787      1789      1792      1788      1787      1793      1794
      1788      1787      1793      1795      1788      1787      1793      1796
      1789      1787      1793      1794      1789      1787      1793      1795
      1789      1787      1793      1796      1790      1789      1787      1793
      1791      1789      1787      1793      1792      1789      1787      1793
      1797      1801      1804      1805      1797      1801      1804      1835
      1797      1843      1840      1835      1797      1843      1840      1841
      1797      1843      1840      1842      1798      1797      1799      1800
      1798      1797      1801      1802      1798      1797      1801      1803
      1798      1797      1801      1804      1798      1797      1843      1840
      1798      1797      1843      1844      1798      1797      1843      1845
      1799      1797      1801      1802      1799      1797      1801      1803
      1799      1797      1801      1804      1799      1797      1843      1840
      1799      1797      1843      1844      1799      1797      1843      1845
      1800      1799      1797      1801      1800      1799      1797      1843
      1801      1797      1843      1840      1801      1797      1843      1844
      1801      1797      1843      1845      1801      1804      1805      1806
      1801      1804      1805      1807      1801      1804      1835      1833
      1801      1804      1835      1836      1801      1804      1835      1840
      1802      1801      1797      1843      1802      1801      1804      1805
      1802      1801      1804      1835      1803      1801      1797      1843
      1803      1801      1804      1805      1803      1801      1804      1835
      1804      1801      1797      1843      1804      1805      1807      1808
      1804      1805      1807      1809      1804      1805      1807      1810
      1804      1835      1833      1810      1804      1835      1833      1830
      1804      1835      1833      1834      1804      1835      1836      1837
      1804      1835      1836      1838      1804      1835      1836      1839
      1804      1835      1840      1841      1804      1835      1840      1842
      1804      1835      1840      1843      1805      1804      1835      1833
      1805      1804      1835      1836      1805      1804      1835      1840
      1805      1807      1810      1811      1805      1807      1810      1812
      1805      1807      1810      1833      1806      1805      1804      1835
      1806      1805      1807      1808      1806      1805      1807      1809
      1806      1805      1807      1810      1807      1805      1804      1835
      1807      1810      1812      1813      1807      1810      1812      1814
      1807      1810      1812      1822      1807      1810      1833      1830
      1807      1810      1833      1834      1807      1810      1833      1835
      1808      1807      1810      1811      1808      1807      1810      1812
      1808      1807      1810      1833      1809      1807      1810      1811
      1809      1807      1810      1812      1809      1807      1810      1833
      1810      1812      1814      1815      1810      1812      1814      1816
      1810      1812      1814      1817      1810      1812      1822      1820
      1810      1812      1822      1823      1810      1812      1822      1827
      1810      1833      1830      1827      1810      1833      1830      1831
      1810      1833      1830      1832      1810      1833      1835      1836
      1810      1833      1835      1840      1811      1810      1812      1813
      1811      1810      1812      1814      1811      1810      1812      1822
      1811      1810      1833      1830      1811      1810      1833      1834
      1811      1810      1833      1835      1812      1810      1833      1830
      1812      1810      1833      1834      1812      1810      1833      1835
      1812      1814      1817      1818      1812      1814      1817      1819
      1812      1814      1817      1820      1812      1822      1820      1817
      1812      1822      1820      1821      1812      1822      1820      1846
      1812      1822      1823      1824      1812      1822      1823      1825
      1812      1822      1823      1826      1812      1822      1827      1828
      1812      1822      1827      1829      1812      1822      1827      1830
      1813      1812      1810      1833      1813      1812      1814      1815
      1813      1812      1814      1816      1813      1812      1814      1817
      1813      1812      1822      1820      1813      1812      1822      1823
      1813      1812      1822      1827      1814      1812      1810      1833
      1814      1812      1822      1820      1814      1812      1822      1823
      1814      1812      1822      1827      1814      1817      1820      1821
      1814      1817      1820      1822      1814      1817      1820      1846
      1815      1814      1812      1822      1815      1814      1817      1818
      1815      1814      1817      1819      1815      1814      1817      1820
      1816      1814      1812      1822      1816      1814      1817      1818
      1816      1814      1817      1819      1816      1814      1817      1820
      1817      1814      1812      1822      1817      1820      1822      1823
      1817      1820      1822      1827      1817      1820      1846      1847
      1817      1820      1846      1848      1817      1820      1846      1852
      1818      1817      1820      1821      1818      1817      1820      1822
      1818      1817      1820      1846      1819      1817      1820      1821
      1819      1817      1820      1822      1819      1817      1820      1846
      1820      1822      1823      1824      1820      1822      1823      1825
      1820      1822      1823      1826      1820      1822      1827      1828
      1820      1822      1827      1829      1820      1822      1827      1830
      1820      1846      1848      1849      1820      1846      1848      1850
      1820      1846      1848      1851      1820      1846      1852      1853
      1820      1846      1852      1854      1820      1846      1852      1855
      1821      1820      1822      1823      1821      1820      1822      1827
      1821      1820      1846      1847      1821      1820      1846      1848
      1821      1820      1846      1852      1822      1812      1810      1833
      1822      1820      1846      1847      1822      1820      1846      1848
      1822      1820      1846      1852      1822      1827      1830      1831
      1822      1827      1830      1832      1822      1827      1830      1833
      1823      1822      1820      1846      1823      1822      1827      1828
      1823      1822      1827      1829      1823      1822      1827      1830
      1824      1823      1822      1827      1825      1823      1822      1827
      1826      1823      1822      1827      1827      1822      1820      1846
      1827      1830      1833      1834      1827      1830      1833      1835
      1828      1827      1830      1831      1828      1827      1830      1832
      1828      1827      1830      1833      1829      1827      1830      1831
      1829      1827      1830      1832      1829      1827      1830      1833
      1830      1833      1835      1836      1830      1833      1835      1840
      1831      1830      1833      1834      1831      1830      1833      1835
      1832      1830      1833      1834      1832      1830      1833      1835
      1833      1835      1836      1837      1833      1835      1836      1838
      1833      1835      1836      1839      1833      1835      1840      1841
      1833      1835      1840      1842      1833      1835      1840      1843
      1834      1833      1835      1836      1834      1833      1835      1840
      1835      1840      1843      1844      1835      1840      1843      1845
      1836      1835      1840      1841      1836      1835      1840      1842
      1836      1835      1840      1843      1837      1836      1835      1840
      1838      1836      1835      1840      1839      1836      1835      1840
      1841      1840      1843      1844      1841      1840      1843      1845
      1842      1840      1843      1844      1842      1840      1843      1845
      1846      1852      1855      1856      1846      1852      1855      1857
      1846      1852      1855      1858      1847      1846      1848      1849
      1847      1846      1848      1850      1847      1846      1848      1851
      1847      1846      1852      1853      1847      1846      1852      1854
      1847      1846      1852      1855      1848      1846      1852      1853
      1848      1846      1852      1854      1848      1846      1852      1855
      1849      1848      1846      1852      1850      1848      1846      1852
      1851      1848      1846      1852      1852      1855      1858      1859
      1852      1855      1858      1860      1852      1855      1858      1861
      1853      1852      1855      1856      1853      1852      1855      1857
      1853      1852      1855      1858      1854      1852      1855      1856
      1854      1852      1855      1857      1854      1852      1855      1858
      1855      1858      1861      1862      1855      1858      1861      1863
      1855      1858      1861      1867      1856      1855      1858      1859
      1856      1855      1858      1860      1856      1855      1858      1861
      1857      1855      1858      1859      1857      1855      1858      1860
      1857      1855      1858      1861      1858      1861      1863      1864
      1858      1861      1863      1865      1858      1861      1863      1866
      1858      1861      1867      1868      1858      1861      1867      1869
      1858      1861      1867      1870      1859      1858      1861      1862
      1859      1858      1861      1863      1859      1858      1861      1867
      1860      1858      1861      1862      1860      1858      1861      1863
      1860      1858      1861      1867      1862      1861      1863      1864
      1862      1861      1863      1865      1862      1861      1863      1866
      1862      1861      1867      1868      1862      1861      1867      1869
      1862      1861      1867      1870      1863      1861      1867      1868
      1863      1861      1867      1869      1863      1861      1867      1870
      1864      1863      1861      1867      1865      1863      1861      1867
      1866      1863      1861      1867      1871      1872      1887      1888
      1871      1872      1887      1889      1871      1872      1887      1893
      1872      1871      1875      1876      1872      1871      1875      1877
      1872      1871      1875      1878      1872      1871      1879      1880
      1872      1871      1879      1881      1872      1871      1879      1882
      1872      1871      1883      1884      1872      1871      1883      1885
      1872      1871      1883      1886      1872      1887      1893      1890
      1873      1872      1871      1875      1873      1872      1871      1879
      1873      1872      1871      1883      1873      1872      1887      1888
      1873      1872      1887      1889      1873      1872      1887      1893
      1874      1872      1871      1875      1874      1872      1871      1879
      1874      1872      1871      1883      1874      1872      1887      1888
      1874      1872      1887      1889      1874      1872      1887      1893
      1875      1871      1872      1887      1875      1871      1879      1880
      1875      1871      1879      1881      1875      1871      1879      1882
      1875      1871      1883      1884      1875      1871      1883      1885
      1875      1871      1883      1886      1876      1875      1871      1879
      1876      1875      1871      1883      1877      1875      1871      1879
      1877      1875      1871      1883      1878      1875      1871      1879
      1878      1875      1871      1883      1879      1871      1872      1887
      1879      1871      1883      1884      1879      1871      1883      1885
      1879      1871      1883      1886      1880      1879      1871      1883
      1881      1879      1871      1883      1882      1879      1871      1883
      1883      1871      1872      1887      1887      1893      1890      1891
      1887      1893      1890      1892      1887      1893      1890      1894
      1888      1887      1893      1890      1889      1887      1893      1890
      1890      1894      1895      1896      1890      1894      1895      1897
      1890      1894      1895      1898      1891      1890      1894      1895
      1892      1890      1894      1895      1893      1890      1894      1895
      1894      1895      1898      1899      1894      1895      1898      1900
      1894      1895      1898      1906      1895      1898      1900      1901
      1895      1898      1906      1907      1895      1898      1906      1908
      1895      1898      1906      1909      1896      1895      1898      1899
      1896      1895      1898      1900      1896      1895      1898      1906
      1897      1895      1898      1899      1897      1895      1898      1900
      1897      1895      1898      1906      1898      1900      1901      1902
      1898      1900      1901      1903      1898      1906      1909      1910
      1899      1898      1900      1901      1899      1898      1906      1907
      1899      1898      1906      1908      1899      1898      1906      1909
      1900      1898      1906      1907      1900      1898      1906      1908
      1900      1898      1906      1909      1900      1901      1903      1904
      1900      1901      1903      1905      1900      1901      1903      1915
      1901      1900      1898      1906      1901      1903      1915      1916
      1901      1903      1915      1917      1901      1903      1915      1918
      1902      1901      1903      1904      1902      1901      1903      1905
      1902      1901      1903      1915      1903      1915      1918      1919
      1903      1915      1918      1920      1903      1915      1918      1921
      1904      1903      1915      1916      1904      1903      1915      1917
      1904      1903      1915      1918      1905      1903      1915      1916
      1905      1903      1915      1917      1905      1903      1915      1918
      1906      1909      1910      1911      1906      1909      1910      1912
      1907      1906      1909      1910      1908      1906      1909      1910
      1909      1910      1912      1913      1909      1910      1912      1914
      1909      1910      1912      1962      1910      1912      1962      1963
      1910      1912      1962      1964      1910      1912      1962      1965
      1911      1910      1912      1913      1911      1910      1912      1914
      1911      1910      1912      1962      1912      1962      1965      1966
      1912      1962      1965      1967      1912      1962      1965      1968
      1913      1912      1962      1963      1913      1912      1962      1964
      1913      1912      1962      1965      1914      1912      1962      1963
      1914      1912      1962      1964      1914      1912      1962      1965
      1915      1918      1921      1922      1915      1918      1921      1923
      1916      1915      1918      1919      1916      1915      1918      1920
      1916      1915      1918      1921      1917      1915      1918      1919
      1917      1915      1918      1920      1917      1915      1918      1921
      1918      1921      1923      1924      1918      1921      1923      1925
      1919      1918      1921      1922      1919      1918      1921      1923
      1920      1918      1921      1922      1920      1918      1921      1923
      1921      1923      1925      1926      1921      1923      1925      1927
      1921      1923      1925      1928      1922      1921      1923      1924
      1922      1921      1923      1925      1923      1925      1928      1929
      1923      1925      1928      1930      1924      1923      1925      1926
      1924      1923      1925      1927      1924      1923      1925      1928
      1925      1928      1930      1931      1925      1928      1930      1932
      1926      1925      1928      1929      1926      1925      1928      1930
      1927      1925      1928      1929      1927      1925      1928      1930
      1928      1930      1932      1933      1928      1930      1932      1934
      1928      1930      1932      1935      1929      1928      1930      1931
      1929      1928      1930      1932      1930      1932      1935      1936
      1930      1932      1935      1937      1931      1930      1932      1933
      1931      1930      1932      1934      1931      1930      1932      1935
      1932      1935      1937      1938      1932      1935      1937      1939
      1933      1932      1935      1936      1933      1932      1935      1937
      1934      1932      1935      1936      1934      1932      1935      1937
      1935      1937      1939      1940      1935      1937      1939      1941
      1935      1937      1939      1942      1936      1935      1937      1938
      1936      1935      1937      1939      1937      1939      1942      1943
      1937      1939      1942      1944      1938      1937      1939      1940
      1938      1937      1939      1941      1938      1937      1939      1942
      1939      1942      1944      1945      1939      1942      1944      1946
      1940      1939      1942      1943      1940      1939      1942      1944
      1941      1939      1942      1943      1941      1939      1942      1944
      1942      1944      1946      1947      1942      1944      1946      1948
      1942      1944      1946      1949      1943      1942      1944      1945
      1943      1942      1944      1946      1944      1946      1949      1950
      1944      1946      1949      1951      1944      1946      1949      1952
      1945      1944      1946      1947      1945      1944      1946      1948
      1945      1944      1946      1949      1946      1949      1952      1953
      1946      1949      1952      1954      1946      1949      1952      1955
      1947      1946      1949      1950      1947      1946      1949      1951
      1947      1946      1949      1952      1948      1946      1949      1950
      1948      1946      1949      1951      1948      1946      1949      1952
      1949      1952      1955      1956      1949      1952      1955      1957
      1949      1952      1955      1958      1950      1949      1952      1953
      1950      1949      1952      1954      1950      1949      1952      1955
      1951      1949      1952      1953      1951      1949      1952      1954
      1951      1949      1952      1955      1952      1955      1958      1959
      1952      1955      1958      1960      1952      1955      1958      1961
      1953      1952      1955      1956      1953      1952      1955      1957
      1953      1952      1955      1958      1954      1952      1955      1956
      1954      1952      1955      1957      1954      1952      1955      1958
      1956      1955      1958      1959      1956      1955      1958      1960
      1956      1955      1958      1961      1957      1955      1958      1959
      1957      1955      1958      1960      1957      1955      1958      1961
      1962      1965      1968      1969      1962      1965      1968      1970
      1962      1965      1968      1971      1963      1962      1965      1966
      1963      1962      1965      1967      1963      1962      1965      1968
      1964      1962      1965      1966      1964      1962      1965      1967
      1964      1962      1965      1968      1965      1968      1971      1972
      1965      1968      1971      1973      1965      1968      1971      1974
      1966      1965      1968      1969      1966      1965      1968      1970
      1966      1965      1968      1971      1967      1965      1968      1969
      1967      1965      1968      1970      1967      1965      1968      1971
      1968      1971      1974      1975      1968      1971      1974      1976
      1968      1971      1974      1977      1969      1968      1971      1972
      1969      1968      1971      1973      1969      1968      1971      1974
      1970      1968      1971      1972      1970      1968      1971      1973
      1970      1968      1971      1974      1971      1974      1977      1978
      1971      1974      1977      1979      1971      1974      1977      1980
      1972      1971      1974      1975      1972      1971      1974      1976
      1972      1971      1974      1977      1973      1971      1974      1975
      1973      1971      1974      1976      1973      1971      1974      1977
      1974      1977      1980      1981      1974      1977      1980      1982
      1974      1977      1980      1983      1975      1974      1977      1978
      1975      1974      1977      1979      1975      1974      1977      1980
      1976      1974      1977      1978      1976      1974      1977      1979
      1976      1974      1977      1980      1977      1980      1983      1984
      1977      1980      1983      1985      1977      1980      1983      1986
      1978      1977      1980      1981      1978      1977      1980      1982
      1978      1977      1980      1983      1979      1977      1980      1981
      1979      1977      1980      1982      1979      1977      1980      1983
      1980      1983      1986      1987      1980      1983      1986      1988
      1980      1983      1986      1989      1981      1980      1983      1984
      1981      1980      1983      1985      1981      1980      1983      1986
      1982      1980      1983      1984      1982      1980      1983      1985
      1982      1980      1983      1986      1983      1986      1989      1990
      1983      1986      1989      1991      1983      1986      1989      1992
      1984      1983      1986      1987      1984      1983      1986      1988
      1984      1983      1986      1989      1985      1983      1986      1987
      1985      1983      1986      1988      1985      1983      1986      1989
      1986      1989      1992      1993      1986      1989      1992      1994
      1986      1989      1992      1995      1987      1986      1989      1990
      1987      1986      1989      1991      1987      1986      1989      1992
      1988      1986      1989      1990      1988      1986      1989      1991
      1988      1986      1989      1992      1989      1992      1995      1996
      1989      1992      1995      1997      1989      1992      1995      1998
      1990      1989      1992      1993      1990      1989      1992      1994
      1990      1989      1992      1995      1991      1989      1992      1993
      1991      1989      1992      1994      1991      1989      1992      1995
      1992      1995      1998      1999      1992      1995      1998      2000
      1992      1995      1998      2001      1993      1992      1995      1996
      1993      1992      1995      1997      1993      1992      1995      1998
      1994      1992      1995      1996      1994      1992      1995      1997
      1994      1992      1995      1998      1995      1998      2001      2002
      1995      1998      2001      2003      1995      1998      2001      2004
      1996      1995      1998      1999      1996      1995      1998      2000
      1996      1995      1998      2001      1997      1995      1998      1999
      1997      1995      1998      2000      1997      1995      1998      2001
      1998      2001      2004      2005      1998      2001      2004      2006
      1998      2001      2004      2007      1999      1998      2001      2002
      1999      1998      2001      2003      1999      1998      2001      2004
      2000      1998      2001      2002      2000      1998      2001      2003
      2000      1998      2001      2004      2001      2004      2007      2008
      2001      2004      2007      2009      2001      2004      2007      2010
      2002      2001      2004      2005      2002      2001      2004      2006
      2002      2001      2004      2007      2003      2001      2004      2005
      2003      2001      2004      2006      2003      2001      2004      2007
      2005      2004      2007      2008      2005      2004      2007      2009
      2005      2004      2007      2010      2006      2004      2007      2008
      2006      2004      2007      2009      2006      2004      2007      2010
      2011      2024      2027      2028      2011      2024      2027      2029
      2011      2024      2027      2034      2012      2011      2016      2017
      2012      2011      2016      2018      2012      2011      2016      2019
      2012      2011      2020      2021      2012      2011      2020      2022
      2012      2011      2020      2023      2012      2011      2024      2025
      2012      2011      2024      2026      2012      2011      2024      2027
      2013      2012      2011      2016      2013      2012      2011      2020
      2013      2012      2011      2024      2014      2012      2011      2016
      2014      2012      2011      2020      2014      2012      2011      2024
      2015      2012      2011      2016      2015      2012      2011      2020
      2015      2012      2011      2024      2016      2011      2020      2021
      2016      2011      2020      2022      2016      2011      2020      2023
      2016      2011      2024      2025      2016      2011      2024      2026
      2016      2011      2024      2027      2017      2016      2011      2020
      2017      2016      2011      2024      2018      2016      2011      2020
      2018      2016      2011      2024      2019      2016      2011      2020
      2019      2016      2011      2024      2020      2011      2024      2025
      2020      2011      2024      2026      2020      2011      2024      2027
      2021      2020      2011      2024      2022      2020      2011      2024
      2023      2020      2011      2024      2024      2027      2034      2030
      2025      2024      2027      2028      2025      2024      2027      2029
      2025      2024      2027      2034      2026      2024      2027      2028
      2026      2024      2027      2029      2026      2024      2027      2034
      2027      2034      2030      2031      2027      2034      2030      2032
      2027      2034      2030      2033      2028      2027      2034      2030
      2029      2027      2034      2030      2030      2033      2035      2036
      2030      2033      2035      2037      2030      2033      2035      2040
      2031      2030      2033      2035      2032      2030      2033      2035
      2033      2035      2040      2038      2033      2035      2040      2041
      2033      2035      2040      2042      2034      2030      2033      2035
      2035      2040      2038      2039      2035      2040      2038      2090
      2035      2040      2042      2043      2035      2040      2042      2044
      2035      2040      2042      2046      2036      2035      2040      2038
      2036      2035      2040      2041      2036      2035      2040      2042
      2037      2035      2040      2038      2037      2035      2040      2041
      2037      2035      2040      2042      2038      2040      2042      2043
      2038      2040      2042      2044      2038      2040      2042      2046
      2038      2090      2092      2093      2038      2090      2092      2094
      2038      2090      2092      2095      2039      2038      2040      2041
      2039      2038      2040      2042      2039      2038      2090      2091
      2039      2038      2090      2092      2040      2038      2090      2091
      2040      2038      2090      2092      2040      2042      2044      2045
      2040      2042      2046      2047      2040      2042      2046      2048
      2041      2040      2038      2090      2041      2040      2042      2043
      2041      2040      2042      2044      2041      2040      2042      2046
      2042      2040      2038      2090      2042      2046      2048      2049
      2042      2046      2048      2050      2043      2042      2044      2045
      2043      2042      2046      2047      2043      2042      2046      2048
      2044      2042      2046      2047      2044      2042      2046      2048
      2045      2044      2042      2046      2046      2048      2050      2051
      2046      2048      2050      2052      2046      2048      2050      2053
      2047      2046      2048      2049      2047      2046      2048      2050
      2048      2050      2053      2054      2048      2050      2053      2055
      2048      2050      2053      2056      2049      2048      2050      2051
      2049      2048      2050      2052      2049      2048      2050      2053
      2050      2053      2056      2057      2050      2053      2056      2058
      2050      2053      2056      2059      2051      2050      2053      2054
      2051      2050      2053      2055      2051      2050      2053      2056
      2052      2050      2053      2054      2052      2050      2053      2055
      2052      2050      2053      2056      2053      2056      2059      2060
      2053      2056      2059      2061      2053      2056      2059      2062
      2054      2053      2056      2057      2054      2053      2056      2058
      2054      2053      2056      2059      2055      2053      2056      2057
      2055      2053      2056      2058      2055      2053      2056      2059
      2056      2059      2062      2063      2056      2059      2062      2064
      2056      2059      2062      2065      2057      2056      2059      2060
      2057      2056      2059      2061      2057      2056      2059      2062
      2058      2056      2059      2060      2058      2056      2059      2061
      2058      2056      2059      2062      2059      2062      2065      2066
      2059      2062      2065      2067      2059      2062      2065      2068
      2060      2059      2062      2063      2060      2059      2062      2064
      2060      2059      2062      2065      2061      2059      2062      2063
      2061      2059      2062      2064      2061      2059      2062      2065
      2062      2065      2068      2069      2062      2065      2068      2070
      2062      2065      2068      2071      2063      2062      2065      2066
      2063      2062      2065      2067      2063      2062      2065      2068
      2064      2062      2065      2066      2064      2062      2065      2067
      2064      2062      2065      2068      2065      2068      2071      2072
      2065      2068      2071      2073      2065      2068      2071      2074
      2066      2065      2068      2069      2066      2065      2068      2070
      2066      2065      2068      2071      2067      2065      2068      2069
      2067      2065      2068      2070      2067      2065      2068      2071
      2068      2071      2074      2075      2068      2071      2074      2076
      2068      2071      2074      2077      2069      2068      2071      2072
      2069      2068      2071      2073      2069      2068      2071      2074
      2070      2068      2071      2072      2070      2068      2071      2073
      2070      2068      2071      2074      2071      2074      2077      2078
      2071      2074      2077      2079      2071      2074      2077      2080
      2072      2071      2074      2075      2072      2071      2074      2076
      2072      2071      2074      2077      2073      2071      2074      2075
      2073      2071      2074      2076      2073      2071      2074      2077
      2074      2077      2080      2081      2074      2077      2080      2082
      2074      2077      2080      2083      2075      2074      2077      2078
      2075      2074      2077      2079      2075      2074      2077      2080
      2076      2074      2077      2078      2076      2074      2077      2079
      2076      2074      2077      2080      2077      2080      2083      2084
      2077      2080      2083      2085      2077      2080      2083      2086
      2078      2077      2080      2081      2078      2077      2080      2082
      2078      2077      2080      2083      2079      2077      2080      2081
      2079      2077      2080      2082      2079      2077      2080      2083
      2080      2083      2086      2087      2080      2083      2086      2088
      2080      2083      2086      2089      2081      2080      2083      2084
      2081      2080      2083      2085      2081      2080      2083      2086
      2082      2080      2083      2084      2082      2080      2083      2085
      2082      2080      2083      2086      2084      2083      2086      2087
      2084      2083      2086      2088      2084      2083      2086      2089
      2085      2083      2086      2087      2085      2083      2086      2088
      2085      2083      2086      2089      2090      2092      2095      2096
      2090      2092      2095      2097      2090      2092      2095      2098
      2091      2090      2092      2093      2091      2090      2092      2094
      2091      2090      2092      2095      2092      2095      2098      2099
      2092      2095      2098      2100      2092      2095      2098      2101
      2093      2092      2095      2096      2093      2092      2095      2097
      2093      2092      2095      2098      2094      2092      2095      2096
      2094      2092      2095      2097      2094      2092      2095      2098
      2095      2098      2101      2102      2095      2098      2101      2103
      2095      2098      2101      2104      2096      2095      2098      2099
      2096      2095      2098      2100      2096      2095      2098      2101
      2097      2095      2098      2099      2097      2095      2098      2100
      2097      2095      2098      2101      2098      2101      2104      2105
      2098      2101      2104      2106      2098      2101      2104      2107
      2099      2098      2101      2102      2099      2098      2101      2103
      2099      2098      2101      2104      2100      2098      2101      2102
      2100      2098      2101      2103      2100      2098      2101      2104
      2101      2104      2107      2108      2101      2104      2107      2109
      2101      2104      2107      2110      2102      2101      2104      2105
      2102      2101      2104      2106      2102      2101      2104      2107
      2103      2101      2104      2105      2103      2101      2104      2106
      2103      2101      2104      2107      2104      2107      2110      2111
      2104      2107      2110      2112      2104      2107      2110      2113
      2105      2104      2107      2108      2105      2104      2107      2109
      2105      2104      2107      2110      2106      2104      2107      2108
      2106      2104      2107      2109      2106      2104      2107      2110
      2107      2110      2113      2114      2107      2110      2113      2115
      2108      2107      2110      2111      2108      2107      2110      2112
      2108      2107      2110      2113      2109      2107      2110      2111
      2109      2107      2110      2112      2109      2107      2110      2113
      2110      2113      2115      2116      2110      2113      2115      2117
      2111      2110      2113      2114      2111      2110      2113      2115
      2112      2110      2113      2114      2112      2110      2113      2115
      2113      2115      2117      2118      2113      2115      2117      2119
      2113      2115      2117      2120      2114      2113      2115      2116
      2114      2113      2115      2117      2115      2117      2120      2121
      2115      2117      2120      2122      2115      2117      2120      2123
      2116      2115      2117      2118      2116      2115      2117      2119
      2116      2115      2117      2120      2117      2120      2123      2124
      2117      2120      2123      2125      2117      2120      2123      2126
      2118      2117      2120      2121      2118      2117      2120      2122
      2118      2117      2120      2123      2119      2117      2120      2121
      2119      2117      2120      2122      2119      2117      2120      2123
      2120      2123      2126      2127      2120      2123      2126      2128
      2120      2123      2126      2129      2121      2120      2123      2124
      2121      2120      2123      2125      2121      2120      2123      2126
      2122      2120      2123      2124      2122      2120      2123      2125
      2122      2120      2123      2126      2123      2126      2129      2130
      2123      2126      2129      2131      2123      2126      2129      2132
      2124      2123      2126      2127      2124      2123      2126      2128
      2124      2123      2126      2129      2125      2123      2126      2127
      2125      2123      2126      2128      2125      2123      2126      2129
      2126      2129      2132      2133      2126      2129      2132      2134
      2126      2129      2132      2135      2127      2126      2129      2130
      2127      2126      2129      2131      2127      2126      2129      2132
      2128      2126      2129      2130      2128      2126      2129      2131
      2128      2126      2129      2132      2129      2132      2135      2136
      2129      2132      2135      2137      2129      2132      2135      2138
      2130      2129      2132      2133      2130      2129      2132      2134
      2130      2129      2132      2135      2131      2129      2132      2133
      2131      2129      2132      2134      2131      2129      2132      2135
      2132      2135      2138      2139      2132      2135      2138      2140
      2132      2135      2138      2141      2133      2132      2135      2136
      2133      2132      2135      2137      2133      2132      2135      2138
      2134      2132      2135      2136      2134      2132      2135      2137
      2134      2132      2135      2138      2136      2135      2138      2139
      2136      2135      2138      2140      2136      2135      2138      2141
      2137      2135      2138      2139      2137      2135      2138      2140
      2137      2135      2138      2141      2142      2146      2149      2150
      2142      2146      2149      2151      2142      2146      2149      2155
      2143      2142      2146      2147      2143      2142      2146      2148
      2143      2142      2146      2149      2144      2142      2146      2147
      2144      2142      2146      2148      2144      2142      2146      2149
      2145      2142      2146      2147      2145      2142      2146      2148
      2145      2142      2146      2149      2146      2149      2155      2152
      2147      2146      2149      2150      2147      2146      2149      2151
      2147      2146      2149      2155      2148      2146      2149      2150
      2148      2146      2149      2151      2148      2146      2149      2155
      2149      2155      2152      2153      2149      2155      2152      2154
      2149      2155      2152      2156      2150      2149      2155      2152
      2151      2149      2155      2152      2152      2156      2157      2158
      2152      2156      2157      2159      2152      2156      2157      2160
      2153      2152      2156      2157      2154      2152      2156      2157
      2155      2152      2156      2157      2156      2157      2160      2161
      2156      2157      2160      2162      2156      2157      2160      2168
      2157      2160      2162      2163      2157      2160      2168      2169
      2157      2160      2168      2170      2157      2160      2168      2171
      2158      2157      2160      2161      2158      2157      2160      2162
      2158      2157      2160      2168      2159      2157      2160      2161
      2159      2157      2160      2162      2159      2157      2160      2168
      2160      2162      2163      2164      2160      2162      2163      2165
      2160      2168      2171      2172      2161      2160      2162      2163
      2161      2160      2168      2169      2161      2160      2168      2170
      2161      2160      2168      2171      2162      2160      2168      2169
      2162      2160      2168      2170      2162      2160      2168      2171
      2162      2163      2165      2166      2162      2163      2165      2167
      2162      2163      2165      2177      2163      2162      2160      2168
      2163      2165      2177      2178      2163      2165      2177      2179
      2163      2165      2177      2180      2164      2163      2165      2166
      2164      2163      2165      2167      2164      2163      2165      2177
      2165      2177      2180      2181      2165      2177      2180      2182
      2165      2177      2180      2183      2166      2165      2177      2178
      2166      2165      2177      2179      2166      2165      2177      2180
      2167      2165      2177      2178      2167      2165      2177      2179
      2167      2165      2177      2180      2168      2171      2172      2173
      2168      2171      2172      2174      2169      2168      2171      2172
      2170      2168      2171      2172      2171      2172      2174      2175
      2171      2172      2174      2176      2171      2172      2174      2224
      2172      2174      2224      2225      2172      2174      2224      2226
      2172      2174      2224      2227      2173      2172      2174      2175
      2173      2172      2174      2176      2173      2172      2174      2224
      2174      2224      2227      2228      2174      2224      2227      2229
      2174      2224      2227      2230      2175      2174      2224      2225
      2175      2174      2224      2226      2175      2174      2224      2227
      2176      2174      2224      2225      2176      2174      2224      2226
      2176      2174      2224      2227      2177      2180      2183      2184
      2177      2180      2183      2185      2178      2177      2180      2181
      2178      2177      2180      2182      2178      2177      2180      2183
      2179      2177      2180      2181      2179      2177      2180      2182
      2179      2177      2180      2183      2180      2183      2185      2186
      2180      2183      2185      2187      2181      2180      2183      2184
      2181      2180      2183      2185      2182      2180      2183      2184
      2182      2180      2183      2185      2183      2185      2187      2188
      2183      2185      2187      2189      2183      2185      2187      2190
      2184      2183      2185      2186      2184      2183      2185      2187
      2185      2187      2190      2191      2185      2187      2190      2192
      2186      2185      2187      2188      2186      2185      2187      2189
      2186      2185      2187      2190      2187      2190      2192      2193
      2187      2190      2192      2194      2188      2187      2190      2191
      2188      2187      2190      2192      2189      2187      2190      2191
      2189      2187      2190      2192      2190      2192      2194      2195
      2190      2192      2194      2196      2190      2192      2194      2197
      2191      2190      2192      2193      2191      2190      2192      2194
      2192      2194      2197      2198      2192      2194      2197      2199
      2193      2192      2194      2195      2193      2192      2194      2196
      2193      2192      2194      2197      2194      2197      2199      2200
      2194      2197      2199      2201      2195      2194      2197      2198
      2195      2194      2197      2199      2196      2194      2197      2198
      2196      2194      2197      2199      2197      2199      2201      2202
      2197      2199      2201      2203      2197      2199      2201      2204
      2198      2197      2199      2200      2198      2197      2199      2201
      2199      2201      2204      2205      2199      2201      2204      2206
      2200      2199      2201      2202      2200      2199      2201      2203
      2200      2199      2201      2204      2201      2204      2206      2207
      2201      2204      2206      2208      2202      2201      2204      2205
      2202      2201      2204      2206      2203      2201      2204      2205
      2203      2201      2204      2206      2204      2206      2208      2209
      2204      2206      2208      2210      2204      2206      2208      2211
      2205      2204      2206      2207      2205      2204      2206      2208
      2206      2208      2211      2212      2206      2208      2211      2213
      2206      2208      2211      2214      2207      2206      2208      2209
      2207      2206      2208      2210      2207      2206      2208      2211
      2208      2211      2214      2215      2208      2211      2214      2216
      2208      2211      2214      2217      2209      2208      2211      2212
      2209      2208      2211      2213      2209      2208      2211      2214
      2210      2208      2211      2212      2210      2208      2211      2213
      2210      2208      2211      2214      2211      2214      2217      2218
      2211      2214      2217      2219      2211      2214      2217      2220
      2212      2211      2214      2215      2212      2211      2214      2216
      2212      2211      2214      2217      2213      2211      2214      2215
      2213      2211      2214      2216      2213      2211      2214      2217
      2214      2217      2220      2221      2214      2217      2220      2222
      2214      2217      2220      2223      2215      2214      2217      2218
      2215      2214      2217      2219      2215      2214      2217      2220
      2216      2214      2217      2218      2216      2214      2217      2219
      2216      2214      2217      2220      2218      2217      2220      2221
      2218      2217      2220      2222      2218      2217      2220      2223
      2219      2217      2220      2221      2219      2217      2220      2222
      2219      2217      2220      2223      2224      2227      2230      2231
      2224      2227      2230      2232      2224      2227      2230      2233
      2225      2224      2227      2228      2225      2224      2227      2229
      2225      2224      2227      2230      2226      2224      2227      2228
      2226      2224      2227      2229      2226      2224      2227      2230
      2227      2230      2233      2234      2227      2230      2233      2235
      2227      2230      2233      2236      2228      2227      2230      2231
      2228      2227      2230      2232      2228      2227      2230      2233
      2229      2227      2230      2231      2229      2227      2230      2232
      2229      2227      2230      2233      2230      2233      2236      2237
      2230      2233      2236      2238      2230      2233      2236      2239
      2231      2230      2233      2234      2231      2230      2233      2235
      2231      2230      2233      2236      2232      2230      2233      2234
      2232      2230      2233      2235      2232      2230      2233      2236
      2233      2236      2239      2240      2233      2236      2239      2241
      2233      2236      2239      2242      2234      2233      2236      2237
      2234      2233      2236      2238      2234      2233      2236      2239
      2235      2233      2236      2237      2235      2233      2236      2238
      2235      2233      2236      2239      2236      2239      2242      2243
      2236      2239      2242      2244      2236      2239      2242      2245
      2237      2236      2239      2240      2237      2236      2239      2241
      2237      2236      2239      2242      2238      2236      2239      2240
      2238      2236      2239      2241      2238      2236      2239      2242
      2239      2242      2245      2246      2239      2242      2245      2247
      2239      2242      2245      2248      2240      2239      2242      2243
      2240      2239      2242      2244      2240      2239      2242      2245
      2241      2239      2242      2243      2241      2239      2242      2244
      2241      2239      2242      2245      2242      2245      2248      2249
      2242      2245      2248      2250      2242      2245      2248      2251
      2243      2242      2245      2246      2243      2242      2245      2247
      2243      2242      2245      2248      2244      2242      2245      2246
      2244      2242      2245      2247      2244      2242      2245      2248
      2245      2248      2251      2252      2245      2248      2251      2253
      2245      2248      2251      2254      2246      2245      2248      2249
      2246      2245      2248      2250      2246      2245      2248      2251
      2247      2245      2248      2249      2247      2245      2248      2250
      2247      2245      2248      2251      2248      2251      2254      2255
      2248      2251      2254      2256      2248      2251      2254      2257
      2249      2248      2251      2252      2249      2248      2251      2253
      2249      2248      2251      2254      2250      2248      2251      2252
      2250      2248      2251      2253      2250      2248      2251      2254
      2251      2254      2257      2258      2251      2254      2257      2259
      2251      2254      2257      2260      2252      2251      2254      2255
      2252      2251      2254      2256      2252      2251      2254      2257
      2253      2251      2254      2255      2253      2251      2254      2256
      2253      2251      2254      2257      2254      2257      2260      2261
      2254      2257      2260      2262      2254      2257      2260      2263
      2255      2254      2257      2258      2255      2254      2257      2259
      2255      2254      2257      2260      2256      2254      2257      2258
      2256      2254      2257      2259      2256      2254      2257      2260
      2257      2260      2263      2264      2257      2260      2263      2265
      2257      2260      2263      2266      2258      2257      2260      2261
      2258      2257      2260      2262      2258      2257      2260      2263
      2259      2257      2260      2261      2259      2257      2260      2262
      2259      2257      2260      2263      2260      2263      2266      2267
      2260      2263      2266      2268      2260      2263      2266      2269
      2261      2260      2263      2264      2261      2260      2263      2265
      2261      2260      2263      2266      2262      2260      2263      2264
      2262      2260      2263      2265      2262      2260      2263      2266
      2263      2266      2269      2270      2263      2266      2269      2271
      2263      2266      2269      2272      2264      2263      2266      2267
      2264      2263      2266      2268      2264      2263      2266      2269
      2265      2263      2266      2267      2265      2263      2266      2268
      2265      2263      2266      2269      2267      2266      2269      2270
      2267      2266      2269      2271      2267      2266      2269      2272
      2268      2266      2269      2270      2268      2266      2269      2271
      2268      2266      2269      2272      2273      2277      2280      2281
      2273      2277      2280      2311      2273      2319      2316      2311
      2273      2319      2316      2317      2273      2319      2316      2318
      2274      2273      2275      2276      2274      2273      2277      2278
      2274      2273      2277      2279      2274      2273      2277      2280
      2274      2273      2319      2316      2274      2273      2319      2320
      2274      2273      2319      2321      2275      2273      2277      2278
      2275      2273      2277      2279      2275      2273      2277      2280
      2275      2273      2319      2316      2275      2273      2319      2320
      2275      2273      2319      2321      2276      2275      2273      2277
      2276      2275      2273      2319      2277      2273      2319      2316
      2277      2273      2319      2320      2277      2273      2319      2321
      2277      2280      2281      2282      2277      2280      2281      2283
      2277      2280      2311      2309      2277      2280      2311      2312
      2277      2280      2311      2316      2278      2277      2273      2319
      2278      2277      2280      2281      2278      2277      2280      2311
      2279      2277      2273      2319      2279      2277      2280      2281
      2279      2277      2280      2311      2280      2277      2273      2319
      2280      2281      2283      2284      2280      2281      2283      2285
      2280      2281      2283      2286      2280      2311      2309      2286
      2280      2311      2309      2306      2280      2311      2309      2310
      2280      2311      2312      2313      2280      2311      2312      2314
      2280      2311      2312      2315      2280      2311      2316      2317
      2280      2311      2316      2318      2280      2311      2316      2319
      2281      2280      2311      2309      2281      2280      2311      2312
      2281      2280      2311      2316      2281      2283      2286      2287
      2281      2283      2286      2288      2281      2283      2286      2309
      2282      2281      2280      2311      2282      2281      2283      2284
      2282      2281      2283      2285      2282      2281      2283      2286
      2283      2281      2280      2311      2283      2286      2288      2289
      2283      2286      2288      2290      2283      2286      2288      2298
      2283      2286      2309      2306      2283      2286      2309      2310
      2283      2286      2309      2311      2284      2283      2286      2287
      2284      2283      2286      2288      2284      2283      2286      2309
      2285      2283      2286      2287      2285      2283      2286      2288
      2285      2283      2286      2309      2286      2288      2290      2291
      2286      2288      2290      2292      2286      2288      2290      2293
      2286      2288      2298      2296      2286      2288      2298      2299
      2286      2288      2298      2303      2286      2309      2306      2303
      2286      2309      2306      2307      2286      2309      2306      2308
      2286      2309      2311      2312      2286      2309      2311      2316
      2287      2286      2288      2289      2287      2286      2288      2290
      2287      2286      2288      2298      2287      2286      2309      2306
      2287      2286      2309      2310      2287      2286      2309      2311
      2288      2286      2309      2306      2288      2286      2309      2310
      2288      2286      2309      2311      2288      2290      2293      2294
      2288      2290      2293      2295      2288      2290      2293      2296
      2288      2298      2296      2293      2288      2298      2296      2297
      2288      2298      2296      2322      2288      2298      2299      2300
      2288      2298      2299      2301      2288      2298      2299      2302
      2288      2298      2303      2304      2288      2298      2303      2305
      2288      2298      2303      2306      2289      2288      2286      2309
      2289      2288      2290      2291      2289      2288      2290      2292
      2289      2288      2290      2293      2289      2288      2298      2296
      2289      2288      2298      2299      2289      2288      2298      2303
      2290      2288      2286      2309      2290      2288      2298      2296
      2290      2288      2298      2299      2290      2288      2298      2303
      2290      2293      2296      2297      2290      2293      2296      2298
      2290      2293      2296      2322      2291      2290      2288      2298
      2291      2290      2293      2294      2291      2290      2293      2295
      2291      2290      2293      2296      2292      2290      2288      2298
      2292      2290      2293      2294      2292      2290      2293      2295
      2292      2290      2293      2296      2293      2290      2288      2298
      2293      2296      2298      2299      2293      2296      2298      2303
      2293      2296      2322      2323      2293      2296      2322      2324
      2293      2296      2322      2328      2294      2293      2296      2297
      2294      2293      2296      2298      2294      2293      2296      2322
      2295      2293      2296      2297      2295      2293      2296      2298
      2295      2293      2296      2322      2296      2298      2299      2300
      2296      2298      2299      2301      2296      2298      2299      2302
      2296      2298      2303      2304      2296      2298      2303      2305
      2296      2298      2303      2306      2296      2322      2324      2325
      2296      2322      2324      2326      2296      2322      2324      2327
      2296      2322      2328      2329      2296      2322      2328      2330
      2296      2322      2328      2331      2297      2296      2298      2299
      2297      2296      2298      2303      2297      2296      2322      2323
      2297      2296      2322      2324      2297      2296      2322      2328
      2298      2288      2286      2309      2298      2296      2322      2323
      2298      2296      2322      2324      2298      2296      2322      2328
      2298      2303      2306      2307      2298      2303      2306      2308
      2298      2303      2306      2309      2299      2298      2296      2322
      2299      2298      2303      2304      2299      2298      2303      2305
      2299      2298      2303      2306      2300      2299      2298      2303
      2301      2299      2298      2303      2302      2299      2298      2303
      2303      2298      2296      2322      2303      2306      2309      2310
      2303      2306      2309      2311      2304      2303      2306      2307
      2304      2303      2306      2308      2304      2303      2306      2309
      2305      2303      2306      2307      2305      2303      2306      2308
      2305      2303      2306      2309      2306      2309      2311      2312
      2306      2309      2311      2316      2307      2306      2309      2310
      2307      2306      2309      2311      2308      2306      2309      2310
      2308      2306      2309      2311      2309      2311      2312      2313
      2309      2311      2312      2314      2309      2311      2312      2315
      2309      2311      2316      2317      2309      2311      2316      2318
      2309      2311      2316      2319      2310      2309      2311      2312
      2310      2309      2311      2316      2311      2316      2319      2320
      2311      2316      2319      2321      2312      2311      2316      2317
      2312      2311      2316      2318      2312      2311      2316      2319
      2313      2312      2311      2316      2314      2312      2311      2316
      2315      2312      2311      2316      2317      2316      2319      2320
      2317      2316      2319      2321      2318      2316      2319      2320
      2318      2316      2319      2321      2322      2328      2331      2332
      2322      2328      2331      2333      2322      2328      2331      2334
      2323      2322      2324      2325      2323      2322      2324      2326
      2323      2322      2324      2327      2323      2322      2328      2329
      2323      2322      2328      2330      2323      2322      2328      2331
      2324      2322      2328      2329      2324      2322      2328      2330
      2324      2322      2328      2331      2325      2324      2322      2328
      2326      2324      2322      2328      2327      2324      2322      2328
      2328      2331      2334      2335      2328      2331      2334      2336
      2328      2331      2334      2337      2329      2328      2331      2332
      2329      2328      2331      2333      2329      2328      2331      2334
      2330      2328      2331      2332      2330      2328      2331      2333
      2330      2328      2331      2334      2331      2334      2337      2338
      2331      2334      2337      2339      2331      2334      2337      2343
      2332      2331      2334      2335      2332      2331      2334      2336
      2332      2331      2334      2337      2333      2331      2334      2335
      2333      2331      2334      2336      2333      2331      2334      2337
      2334      2337      2339      2340      2334      2337      2339      2341
      2334      2337      2339      2342      2334      2337      2343      2344
      2334      2337      2343      2345      2334      2337      2343      2346
      2335      2334      2337      2338      2335      2334      2337      2339
      2335      2334      2337      2343      2336      2334      2337      2338
      2336      2334      2337      2339      2336      2334      2337      2343
      2338      2337      2339      2340      2338      2337      2339      2341
      2338      2337      2339      2342      2338      2337      2343      2344
      2338      2337      2343      2345      2338      2337      2343      2346
      2339      2337      2343      2344      2339      2337      2343      2345
      2339      2337      2343      2346      2340      2339      2337      2343
      2341      2339      2337      2343      2342      2339      2337      2343
      2347      2351      2354      2355      2347      2351      2354      2385
      2347      2393      2390      2385      2347      2393      2390      2391
      2347      2393      2390      2392      2348      2347      2349      2350
      2348      2347      2351      2352      2348      2347      2351      2353
      2348      2347      2351      2354      2348      2347      2393      2390
      2348      2347      2393      2394      2348      2347      2393      2395
      2349      2347      2351      2352      2349      2347      2351      2353
      2349      2347      2351      2354      2349      2347      2393      2390
      2349      2347      2393      2394      2349      2347      2393      2395
      2350      2349      2347      2351      2350      2349      2347      2393
      2351      2347      2393      2390      2351      2347      2393      2394
      2351      2347      2393      2395      2351      2354      2355      2356
      2351      2354      2355      2357      2351      2354      2385      2383
      2351      2354      2385      2386      2351      2354      2385      2390
      2352      2351      2347      2393      2352      2351      2354      2355
      2352      2351      2354      2385      2353      2351      2347      2393
      2353      2351      2354      2355      2353      2351      2354      2385
      2354      2351      2347      2393      2354      2355      2357      2358
      2354      2355      2357      2359      2354      2355      2357      2360
      2354      2385      2383      2360      2354      2385      2383      2380
      2354      2385      2383      2384      2354      2385      2386      2387
      2354      2385      2386      2388      2354      2385      2386      2389
      2354      2385      2390      2391      2354      2385      2390      2392
      2354      2385      2390      2393      2355      2354      2385      2383
      2355      2354      2385      2386      2355      2354      2385      2390
      2355      2357      2360      2361      2355      2357      2360      2362
      2355      2357      2360      2383      2356      2355      2354      2385
      2356      2355      2357      2358      2356      2355      2357      2359
      2356      2355      2357      2360      2357      2355      2354      2385
      2357      2360      2362      2363      2357      2360      2362      2364
      2357      2360      2362      2372      2357      2360      2383      2380
      2357      2360      2383      2384      2357      2360      2383      2385
      2358      2357      2360      2361      2358      2357      2360      2362
      2358      2357      2360      2383      2359      2357      2360      2361
      2359      2357      2360      2362      2359      2357      2360      2383
      2360      2362      2364      2365      2360      2362      2364      2366
      2360      2362      2364      2367      2360      2362      2372      2370
      2360      2362      2372      2373      2360      2362      2372      2377
      2360      2383      2380      2377      2360      2383      2380      2381
      2360      2383      2380      2382      2360      2383      2385      2386
      2360      2383      2385      2390      2361      2360      2362      2363
      2361      2360      2362      2364      2361      2360      2362      2372
      2361      2360      2383      2380      2361      2360      2383      2384
      2361      2360      2383      2385      2362      2360      2383      2380
      2362      2360      2383      2384      2362      2360      2383      2385
      2362      2364      2367      2368      2362      2364      2367      2369
      2362      2364      2367      2370      2362      2372      2370      2367
      2362      2372      2370      2371      2362      2372      2370      2396
      2362      2372      2373      2374      2362      2372      2373      2375
      2362      2372      2373      2376      2362      2372      2377      2378
      2362      2372      2377      2379      2362      2372      2377      2380
      2363      2362      2360      2383      2363      2362      2364      2365
      2363      2362      2364      2366      2363      2362      2364      2367
      2363      2362      2372      2370      2363      2362      2372      2373
      2363      2362      2372      2377      2364      2362      2360      2383
      2364      2362      2372      2370      2364      2362      2372      2373
      2364      2362      2372      2377      2364      2367      2370      2371
      2364      2367      2370      2372      2364      2367      2370      2396
      2365      2364      2362      2372      2365      2364      2367      2368
      2365      2364      2367      2369      2365      2364      2367      2370
      2366      2364      2362      2372      2366      2364      2367      2368
      2366      2364      2367      2369      2366      2364      2367      2370
      2367      2364      2362      2372      2367      2370      2372      2373
      2367      2370      2372      2377      2367      2370      2396      2397
      2367      2370      2396      2398      2367      2370      2396      2402
      2368      2367      2370      2371      2368      2367      2370      2372
      2368      2367      2370      2396      2369      2367      2370      2371
      2369      2367      2370      2372      2369      2367      2370      2396
      2370      2372      2373      2374      2370      2372      2373      2375
      2370      2372      2373      2376      2370      2372      2377      2378
      2370      2372      2377      2379      2370      2372      2377      2380
      2370      2396      2398      2399      2370      2396      2398      2400
      2370      2396      2398      2401      2370      2396      2402      2403
      2370      2396      2402      2404      2370      2396      2402      2405
      2371      2370      2372      2373      2371      2370      2372      2377
      2371      2370      2396      2397      2371      2370      2396      2398
      2371      2370      2396      2402      2372      2362      2360      2383
      2372      2370      2396      2397      2372      2370      2396      2398
      2372      2370      2396      2402      2372      2377      2380      2381
      2372      2377      2380      2382      2372      2377      2380      2383
      2373      2372      2370      2396      2373      2372      2377      2378
      2373      2372      2377      2379      2373      2372      2377      2380
      2374      2373      2372      2377      2375      2373      2372      2377
      2376      2373      2372      2377      2377      2372      2370      2396
      2377      2380      2383      2384      2377      2380      2383      2385
      2378      2377      2380      2381      2378      2377      2380      2382
      2378      2377      2380      2383      2379      2377      2380      2381
      2379      2377      2380      2382      2379      2377      2380      2383
      2380      2383      2385      2386      2380      2383      2385      2390
      2381      2380      2383      2384      2381      2380      2383      2385
      2382      2380      2383      2384      2382      2380      2383      2385
      2383      2385      2386      2387      2383      2385      2386      2388
      2383      2385      2386      2389      2383      2385      2390      2391
      2383      2385      2390      2392      2383      2385      2390      2393
      2384      2383      2385      2386      2384      2383      2385      2390
      2385      2390      2393      2394      2385      2390      2393      2395
      2386      2385      2390      2391      2386      2385      2390      2392
      2386      2385      2390      2393      2387      2386      2385      2390
      2388      2386      2385      2390      2389      2386      2385      2390
      2391      2390      2393      2394      2391      2390      2393      2395
      2392      2390      2393      2394      2392      2390      2393      2395
      2396      2402      2405      2406      2396      2402      2405      2407
      2396      2402      2405      2408      2397      2396      2398      2399
      2397      2396      2398      2400      2397      2396      2398      2401
      2397      2396      2402      2403      2397      2396      2402      2404
      2397      2396      2402      2405      2398      2396      2402      2403
      2398      2396      2402      2404      2398      2396      2402      2405
      2399      2398      2396      2402      2400      2398      2396      2402
      2401      2398      2396      2402      2402      2405      2408      2409
      2402      2405      2408      2410      2402      2405      2408      2411
      2403      2402      2405      2406      2403      2402      2405      2407
      2403      2402      2405      2408      2404      2402      2405      2406
      2404      2402      2405      2407      2404      2402      2405      2408
      2405      2408      2411      2412      2405      2408      2411      2413
      2405      2408      2411      2417      2406      2405      2408      2409
      2406      2405      2408      2410      2406      2405      2408      2411
      2407      2405      2408      2409      2407      2405      2408      2410
      2407      2405      2408      2411      2408      2411      2413      2414
      2408      2411      2413      2415      2408      2411      2413      2416
      2408      2411      2417      2418      2408      2411      2417      2419
      2408      2411      2417      2420      2409      2408      2411      2412
      2409      2408      2411      2413      2409      2408      2411      2417
      2410      2408      2411      2412      2410      2408      2411      2413
      2410      2408      2411      2417      2412      2411      2413      2414
      2412      2411      2413      2415      2412      2411      2413      2416
      2412      2411      2417      2418      2412      2411      2417      2419
      2412      2411      2417      2420      2413      2411      2417      2418
      2413      2411      2417      2419      2413      2411      2417      2420
      2414      2413      2411      2417      2415      2413      2411      2417
      2416      2413      2411      2417      2421      2425      2428      2429
      2421      2425      2428      2430      2421      2425      2428      2434
      2422      2421      2425      2426      2422      2421      2425      2427
      2422      2421      2425      2428      2423      2421      2425      2426
      2423      2421      2425      2427      2423      2421      2425      2428
      2424      2421      2425      2426      2424      2421      2425      2427
      2424      2421      2425      2428      2425      2428      2434      2431
      2426      2425      2428      2429      2426      2425      2428      2430
      2426      2425      2428      2434      2427      2425      2428      2429
      2427      2425      2428      2430      2427      2425      2428      2434
      2428      2434      2431      2432      2428      2434      2431      2433
      2428      2434      2431      2435      2429      2428      2434      2431
      2430      2428      2434      2431      2431      2435      2436      2437
      2431      2435      2436      2438      2431      2435      2436      2439
      2432      2431      2435      2436      2433      2431      2435      2436
      2434      2431      2435      2436      2435      2436      2439      2440
      2435      2436      2439      2441      2435      2436      2439      2447
      2436      2439      2441      2442      2436      2439      2447      2448
      2436      2439      2447      2449      2436      2439      2447      2450
      2437      2436      2439      2440      2437      2436      2439      2441
      2437      2436      2439      2447      2438      2436      2439      2440
      2438      2436      2439      2441      2438      2436      2439      2447
      2439      2441      2442      2443      2439      2441      2442      2444
      2439      2447      2450      2451      2440      2439      2441      2442
      2440      2439      2447      2448      2440      2439      2447      2449
      2440      2439      2447      2450      2441      2439      2447      2448
      2441      2439      2447      2449      2441      2439      2447      2450
      2441      2442      2444      2445      2441      2442      2444      2446
      2441      2442      2444      2456      2442      2441      2439      2447
      2442      2444      2456      2457      2442      2444      2456      2458
      2442      2444      2456      2459      2443      2442      2444      2445
      2443      2442      2444      2446      2443      2442      2444      2456
      2444      2456      2459      2460      2444      2456      2459      2461
      2444      2456      2459      2462      2445      2444      2456      2457
      2445      2444      2456      2458      2445      2444      2456      2459
      2446      2444      2456      2457      2446      2444      2456      2458
      2446      2444      2456      2459      2447      2450      2451      2452
      2447      2450      2451      2453      2448      2447      2450      2451
      2449      2447      2450      2451      2450      2451      2453      2454
      2450      2451      2453      2455      2450      2451      2453      2503
      2451      2453      2503      2504      2451      2453      2503      2505
      2451      2453      2503      2506      2452      2451      2453      2454
      2452      2451      2453      2455      2452      2451      2453      2503
      2453      2503      2506      2507      2453      2503      2506      2508
      2453      2503      2506      2509      2454      2453      2503      2504
      2454      2453      2503      2505      2454      2453      2503      2506
      2455      2453      2503      2504      2455      2453      2503      2505
      2455      2453      2503      2506      2456      2459      2462      2463
      2456      2459      2462      2464      2457      2456      2459      2460
      2457      2456      2459      2461      2457      2456      2459      2462
      2458      2456      2459      2460      2458      2456      2459      2461
      2458      2456      2459      2462      2459      2462      2464      2465
      2459      2462      2464      2466      2460      2459      2462      2463
      2460      2459      2462      2464      2461      2459      2462      2463
      2461      2459      2462      2464      2462      2464      2466      2467
      2462      2464      2466      2468      2462      2464      2466      2469
      2463      2462      2464      2465      2463      2462      2464      2466
      2464      2466      2469      2470      2464      2466      2469      2471
      2465      2464      2466      2467      2465      2464      2466      2468
      2465      2464      2466      2469      2466      2469      2471      2472
      2466      2469      2471      2473      2467      2466      2469      2470
      2467      2466      2469      2471      2468      2466      2469      2470
      2468      2466      2469      2471      2469      2471      2473      2474
      2469      2471      2473      2475      2469      2471      2473      2476
      2470      2469      2471      2472      2470      2469      2471      2473
      2471      2473      2476      2477      2471      2473      2476      2478
      2472      2471      2473      2474      2472      2471      2473      2475
      2472      2471      2473      2476      2473      2476      2478      2479
      2473      2476      2478      2480      2474      2473      2476      2477
      2474      2473      2476      2478      2475      2473      2476      2477
      2475      2473      2476      2478      2476      2478      2480      2481
      2476      2478      2480      2482      2476      2478      2480      2483
      2477      2476      2478      2479      2477      2476      2478      2480
      2478      2480      2483      2484      2478      2480      2483      2485
      2479      2478      2480      2481      2479      2478      2480      2482
      2479      2478      2480      2483      2480      2483      2485      2486
      2480      2483      2485      2487      2481      2480      2483      2484
      2481      2480      2483      2485      2482      2480      2483      2484
      2482      2480      2483      2485      2483      2485      2487      2488
      2483      2485      2487      2489      2483      2485      2487      2490
      2484      2483      2485      2486      2484      2483      2485      2487
      2485      2487      2490      2491      2485      2487      2490      2492
      2485      2487      2490      2493      2486      2485      2487      2488
      2486      2485      2487      2489      2486      2485      2487      2490
      2487      2490      2493      2494      2487      2490      2493      2495
      2487      2490      2493      2496      2488      2487      2490      2491
      2488      2487      2490      2492      2488      2487      2490      2493
      2489      2487      2490      2491      2489      2487      2490      2492
      2489      2487      2490      2493      2490      2493      2496      2497
      2490      2493      2496      2498      2490      2493      2496      2499
      2491      2490      2493      2494      2491      2490      2493      2495
      2491      2490      2493      2496      2492      2490      2493      2494
      2492      2490      2493      2495      2492      2490      2493      2496
      2493      2496      2499      2500      2493      2496      2499      2501
      2493      2496      2499      2502      2494      2493      2496      2497
      2494      2493      2496      2498      2494      2493      2496      2499
      2495      2493      2496      2497      2495      2493      2496      2498
      2495      2493      2496      2499      2497      2496      2499      2500
      2497      2496      2499      2501      2497      2496      2499      2502
      2498      2496      2499      2500      2498      2496      2499      2501
      2498      2496      2499      2502      2503      2506      2509      2510
      2503      2506      2509      2511      2503      2506      2509      2512
      2504      2503      2506      2507      2504      2503      2506      2508
      2504      2503      2506      2509      2505      2503      2506      2507
      2505      2503      2506      2508      2505      2503      2506      2509
      2506      2509      2512      2513      2506      2509      2512      2514
      2506      2509      2512      2515      2507      2506      2509      2510
      2507      2506      2509      2511      2507      2506      2509      2512
      2508      2506      2509      2510      2508      2506      2509      2511
      2508      2506      2509      2512      2509      2512      2515      2516
      2509      2512      2515      2517      2509      2512      2515      2518
      2510      2509      2512      2513      2510      2509      2512      2514
      2510      2509      2512      2515      2511      2509      2512      2513
      2511      2509      2512      2514      2511      2509      2512      2515
      2512      2515      2518      2519      2512      2515      2518      2520
      2512      2515      2518      2521      2513      2512      2515      2516
      2513      2512      2515      2517      2513      2512      2515      2518
      2514      2512      2515      2516      2514      2512      2515      2517
      2514      2512      2515      2518      2515      2518      2521      2522
      2515      2518      2521      2523      2515      2518      2521      2524
      2516      2515      2518      2519      2516      2515      2518      2520
      2516      2515      2518      2521      2517      2515      2518      2519
      2517      2515      2518      2520      2517      2515      2518      2521
      2518      2521      2524      2525      2518      2521      2524      2526
      2518      2521      2524      2527      2519      2518      2521      2522
      2519      2518      2521      2523      2519      2518      2521      2524
      2520      2518      2521      2522      2520      2518      2521      2523
      2520      2518      2521      2524      2521      2524      2527      2528
      2521      2524      2527      2529      2521      2524      2527      2530
      2522      2521      2524      2525      2522      2521      2524      2526
      2522      2521      2524      2527      2523      2521      2524      2525
      2523      2521      2524      2526      2523      2521      2524      2527
      2524      2527      2530      2531      2524      2527      2530      2532
      2524      2527      2530      2533      2525      2524      2527      2528
      2525      2524      2527      2529      2525      2524      2527      2530
      2526      2524      2527      2528      2526      2524      2527      2529
      2526      2524      2527      2530      2527      2530      2533      2534
      2527      2530      2533      2535      2527      2530      2533      2536
      2528      2527      2530      2531      2528      2527      2530      2532
      2528      2527      2530      2533      2529      2527      2530      2531
      2529      2527      2530      2532      2529      2527      2530      2533
      2530      2533      2536      2537      2530      2533      2536      2538
      2530      2533      2536      2539      2531      2530      2533      2534
      2531      2530      2533      2535      2531      2530      2533      2536
      2532      2530      2533      2534      2532      2530      2533      2535
      2532      2530      2533      2536      2533      2536      2539      2540
      2533      2536      2539      2541      2533      2536      2539      2542
      2534      2533      2536      2537      2534      2533      2536      2538
      2534      2533      2536      2539      2535      2533      2536      2537
      2535      2533      2536      2538      2535      2533      2536      2539
      2536      2539      2542      2543      2536      2539      2542      2544
      2536      2539      2542      2545      2537      2536      2539      2540
      2537      2536      2539      2541      2537      2536      2539      2542
      2538      2536      2539      2540      2538      2536      2539      2541
      2538      2536      2539      2542      2539      2542      2545      2546
      2539      2542      2545      2547      2539      2542      2545      2548
      2540      2539      2542      2543      2540      2539      2542      2544
      2540      2539      2542      2545      2541      2539      2542      2543
      2541      2539      2542      2544      2541      2539      2542      2545
      2542      2545      2548      2549      2542      2545      2548      2550
      2542      2545      2548      2551      2543      2542      2545      2546
      2543      2542      2545      2547      2543      2542      2545      2548
      2544      2542      2545      2546      2544      2542      2545      2547
      2544      2542      2545      2548      2546      2545      2548      2549
      2546      2545      2548      2550      2546      2545      2548      2551
      2547      2545      2548      2549      2547      2545      2548      2550
      2547      2545      2548      2551      2552      2553      2568      2569
      2552      2553      2568      2570      2552      2553      2568      2574
      2553      2552      2556      2557      2553      2552      2556      2558
      2553      2552      2556      2559      2553      2552      2560      2561
      2553      2552      2560      2562      2553      2552      2560      2563
      2553      2552      2564      2565      2553      2552      2564      2566
      2553      2552      2564      2567      2553      2568      2574      2571
      2554      2553      2552      2556      2554      2553      2552      2560
      2554      2553      2552      2564      2554      2553      2568      2569
      2554      2553      2568      2570      2554      2553      2568      2574
      2555      2553      2552      2556      2555      2553      2552      2560
      2555      2553      2552      2564      2555      2553      2568      2569
      2555      2553      2568      2570      2555      2553      2568      2574
      2556      2552      2553      2568      2556      2552      2560      2561
      2556      2552      2560      2562      2556      2552      2560      2563
      2556      2552      2564      2565      2556      2552      2564      2566
      2556      2552      2564      2567      2557      2556      2552      2560
      2557      2556      2552      2564      2558      2556      2552      2560
      2558      2556      2552      2564      2559      2556      2552      2560
      2559      2556      2552      2564      2560      2552      2553      2568
      2560      2552      2564      2565      2560      2552      2564      2566
      2560      2552      2564      2567      2561      2560      2552      2564
      2562      2560      2552      2564      2563      2560      2552      2564
      2564      2552      2553      2568      2568      2574      2571      2572
      2568      2574      2571      2573      2568      2574      2571      2575
      2569      2568      2574      2571      2570      2568      2574      2571
      2571      2575      2576      2577      2571      2575      2576      2578
      2571      2575      2576      2579      2572      2571      2575      2576
      2573      2571      2575      2576      2574      2571      2575      2576
      2575      2576      2579      2580      2575      2576      2579      2581
      2575      2576      2579      2587      2576      2579      2581      2582
      2576      2579      2587      2588      2576      2579      2587      2589
      2576      2579      2587      2590      2577      2576      2579      2580
      2577      2576      2579      2581      2577      2576      2579      2587
      2578      2576      2579      2580      2578      2576      2579      2581
      2578      2576      2579      2587      2579      2581      2582      2583
      2579      2581      2582      2584      2579      2587      2590      2591
      2580      2579      2581      2582      2580      2579      2587      2588
      2580      2579      2587      2589      2580      2579      2587      2590
      2581      2579      2587      2588      2581      2579      2587      2589
      2581      2579      2587      2590      2581      2582      2584      2585
      2581      2582      2584      2586      2581      2582      2584      2596
      2582      2581      2579      2587      2582      2584      2596      2597
      2582      2584      2596      2598      2582      2584      2596      2599
      2583      2582      2584      2585      2583      2582      2584      2586
      2583      2582      2584      2596      2584      2596      2599      2600
      2584      2596      2599      2601      2584      2596      2599      2602
      2585      2584      2596      2597      2585      2584      2596      2598
      2585      2584      2596      2599      2586      2584      2596      2597
      2586      2584      2596      2598      2586      2584      2596      2599
      2587      2590      2591      2592      2587      2590      2591      2593
      2588      2587      2590      2591      2589      2587      2590      2591
      2590      2591      2593      2594      2590      2591      2593      2595
      2590      2591      2593      2643      2591      2593      2643      2644
      2591      2593      2643      2645      2591      2593      2643      2646
      2592      2591      2593      2594      2592      2591      2593      2595
      2592      2591      2593      2643      2593      2643      2646      2647
      2593      2643      2646      2648      2593      2643      2646      2649
      2594      2593      2643      2644      2594      2593      2643      2645
      2594      2593      2643      2646      2595      2593      2643      2644
      2595      2593      2643      2645      2595      2593      2643      2646
      2596      2599      2602      2603      2596      2599      2602      2604
      2596      2599      2602      2605      2597      2596      2599      2600
      2597      2596      2599      2601      2597      2596      2599      2602
      2598      2596      2599      2600      2598      2596      2599      2601
      2598      2596      2599      2602      2599      2602      2605      2606
      2599      2602      2605      2607      2599      2602      2605      2608
      2600      2599      2602      2603      2600      2599      2602      2604
      2600      2599      2602      2605      2601      2599      2602      2603
      2601      2599      2602      2604      2601      2599      2602      2605
      2602      2605      2608      2609      2602      2605      2608      2610
      2602      2605      2608      2611      2603      2602      2605      2606
      2603      2602      2605      2607      2603      2602      2605      2608
      2604      2602      2605      2606      2604      2602      2605      2607
      2604      2602      2605      2608      2605      2608      2611      2612
      2605      2608      2611      2613      2605      2608      2611      2614
      2606      2605      2608      2609      2606      2605      2608      2610
      2606      2605      2608      2611      2607      2605      2608      2609
      2607      2605      2608      2610      2607      2605      2608      2611
      2608      2611      2614      2615      2608      2611      2614      2616
      2609      2608      2611      2612      2609      2608      2611      2613
      2609      2608      2611      2614      2610      2608      2611      2612
      2610      2608      2611      2613      2610      2608      2611      2614
      2611      2614      2616      2617      2611      2614      2616      2618
      2612      2611      2614      2615      2612      2611      2614      2616
      2613      2611      2614      2615      2613      2611      2614      2616
      2614      2616      2618      2619      2614      2616      2618      2620
      2614      2616      2618      2621      2615      2614      2616      2617
      2615      2614      2616      2618      2616      2618      2621      2622
      2616      2618      2621      2623      2616      2618      2621      2624
      2617      2616      2618      2619      2617      2616      2618      2620
      2617      2616      2618      2621      2618      2621      2624      2625
      2618      2621      2624      2626      2618      2621      2624      2627
      2619      2618      2621      2622      2619      2618      2621      2623
      2619      2618      2621      2624      2620      2618      2621      2622
      2620      2618      2621      2623      2620      2618      2621      2624
      2621      2624      2627      2628      2621      2624      2627      2629
      2621      2624      2627      2630      2622      2621      2624      2625
      2622      2621      2624      2626      2622      2621      2624      2627
      2623      2621      2624      2625      2623      2621      2624      2626
      2623      2621      2624      2627      2624      2627      2630      2631
      2624      2627      2630      2632      2624      2627      2630      2633
      2625      2624      2627      2628      2625      2624      2627      2629
      2625      2624      2627      2630      2626      2624      2627      2628
      2626      2624      2627      2629      2626      2624      2627      2630
      2627      2630      2633      2634      2627      2630      2633      2635
      2627      2630      2633      2636      2628      2627      2630      2631
      2628      2627      2630      2632      2628      2627      2630      2633
      2629      2627      2630      2631      2629      2627      2630      2632
      2629      2627      2630      2633      2630      2633      2636      2637
      2630      2633      2636      2638      2630      2633      2636      2639
      2631      2630      2633      2634      2631      2630      2633      2635
      2631      2630      2633      2636      2632      2630      2633      2634
      2632      2630      2633      2635      2632      2630      2633      2636
      2633      2636      2639      2640      2633      2636      2639      2641
      2633      2636      2639      2642      2634      2633      2636      2637
      2634      2633      2636      2638      2634      2633      2636      2639
      2635      2633      2636      2637      2635      2633      2636      2638
      2635      2633      2636      2639      2637      2636      2639      2640
      2637      2636      2639      2641      2637      2636      2639      2642
      2638      2636      2639      2640      2638      2636      2639      2641
      2638      2636      2639      2642      2643      2646      2649      2650
      2643      2646      2649      2651      2643      2646      2649      2652
      2644      2643      2646      2647      2644      2643      2646      2648
      2644      2643      2646      2649      2645      2643      2646      2647
      2645      2643      2646      2648      2645      2643      2646      2649
      2646      2649      2652      2653      2646      2649      2652      2654
      2646      2649      2652      2655      2647      2646      2649      2650
      2647      2646      2649      2651      2647      2646      2649      2652
      2648      2646      2649      2650      2648      2646      2649      2651
      2648      2646      2649      2652      2649      2652      2655      2656
      2649      2652      2655      2657      2649      2652      2655      2658
      2650      2649      2652      2653      2650      2649      2652      2654
      2650      2649      2652      2655      2651      2649      2652      2653
      2651      2649      2652      2654      2651      2649      2652      2655
      2652      2655      2658      2659      2652      2655      2658      2660
      2652      2655      2658      2661      2653      2652      2655      2656
      2653      2652      2655      2657      2653      2652      2655      2658
      2654      2652      2655      2656      2654      2652      2655      2657
      2654      2652      2655      2658      2655      2658      2661      2662
      2655      2658      2661      2663      2655      2658      2661      2664
      2656      2655      2658      2659      2656      2655      2658      2660
      2656      2655      2658      2661      2657      2655      2658      2659
      2657      2655      2658      2660      2657      2655      2658      2661
      2658      2661      2664      2665      2658      2661      2664      2666
      2658      2661      2664      2667      2659      2658      2661      2662
      2659      2658      2661      2663      2659      2658      2661      2664
      2660      2658      2661      2662      2660      2658      2661      2663
      2660      2658      2661      2664      2661      2664      2667      2668
      2661      2664      2667      2669      2661      2664      2667      2670
      2662      2661      2664      2665      2662      2661      2664      2666
      2662      2661      2664      2667      2663      2661      2664      2665
      2663      2661      2664      2666      2663      2661      2664      2667
      2664      2667      2670      2671      2664      2667      2670      2672
      2664      2667      2670      2673      2665      2664      2667      2668
      2665      2664      2667      2669      2665      2664      2667      2670
      2666      2664      2667      2668      2666      2664      2667      2669
      2666      2664      2667      2670      2667      2670      2673      2674
      2667      2670      2673      2675      2667      2670      2673      2676
      2668      2667      2670      2671      2668      2667      2670      2672
      2668      2667      2670      2673      2669      2667      2670      2671
      2669      2667      2670      2672      2669      2667      2670      2673
      2670      2673      2676      2677      2670      2673      2676      2678
      2670      2673      2676      2679      2671      2670      2673      2674
      2671      2670      2673      2675      2671      2670      2673      2676
      2672      2670      2673      2674      2672      2670      2673      2675
      2672      2670      2673      2676      2673      2676      2679      2680
      2673      2676      2679      2681      2673      2676      2679      2682
      2674      2673      2676      2677      2674      2673      2676      2678
      2674      2673      2676      2679      2675      2673      2676      2677
      2675      2673      2676      2678      2675      2673      2676      2679
      2676      2679      2682      2683      2676      2679      2682      2684
      2676      2679      2682      2685      2677      2676      2679      2680
      2677      2676      2679      2681      2677      2676      2679      2682
      2678      2676      2679      2680      2678      2676      2679      2681
      2678      2676      2679      2682      2680      2679      2682      2683
      2680      2679      2682      2684      2680      2679      2682      2685
      2681      2679      2682      2683      2681      2679      2682      2684
      2681      2679      2682      2685      2686      2690      2692      2693
      2686      2690      2692      2694      2686      2690      2695      2696
      2686      2690      2695      2697      2686      2690      2695      2701
      2687      2686      2690      2691      2687      2686      2690      2692
      2687      2686      2690      2695      2688      2686      2690      2691
      2688      2686      2690      2692      2688      2686      2690      2695
      2689      2686      2690      2691      2689      2686      2690      2692
      2689      2686      2690      2695      2690      2695      2701      2698
      2691      2690      2692      2693      2691      2690      2692      2694
      2691      2690      2695      2696      2691      2690      2695      2697
      2691      2690      2695      2701      2692      2690      2695      2696
      2692      2690      2695      2697      2692      2690      2695      2701
      2693      2692      2690      2695      2694      2692      2690      2695
      2695      2701      2698      2699      2695      2701      2698      2700
      2695      2701      2698      2702      2696      2695      2701      2698
      2697      2695      2701      2698      2698      2702      2703      2704
      2698      2702      2703      2705      2698      2702      2703      2706
      2699      2698      2702      2703      2700      2698      2702      2703
      2701      2698      2702      2703      2702      2703      2706      2707
      2702      2703      2706      2708      2702      2703      2706      2714
      2703      2706      2708      2709      2703      2706      2714      2715
      2703      2706      2714      2716      2703      2706      2714      2717
      2704      2703      2706      2707      2704      2703      2706      2708
      2704      2703      2706      2714      2705      2703      2706      2707
      2705      2703      2706      2708      2705      2703      2706      2714
      2706      2708      2709      2710      2706      2708      2709      2711
      2706      2714      2717      2718      2707      2706      2708      2709
      2707      2706      2714      2715      2707      2706      2714      2716
      2707      2706      2714      2717      2708      2706      2714      2715
      2708      2706      2714      2716      2708      2706      2714      2717
      2708      2709      2711      2712      2708      2709      2711      2713
      2708      2709      2711      2723      2709      2708      2706      2714
      2709      2711      2723      2724      2709      2711      2723      2725
      2709      2711      2723      2726      2710      2709      2711      2712
      2710      2709      2711      2713      2710      2709      2711      2723
      2711      2723      2726      2727      2711      2723      2726      2728
      2711      2723      2726      2729      2712      2711      2723      2724
      2712      2711      2723      2725      2712      2711      2723      2726
      2713      2711      2723      2724      2713      2711      2723      2725
      2713      2711      2723      2726      2714      2717      2718      2719
      2714      2717      2718      2720      2715      2714      2717      2718
      2716      2714      2717      2718      2717      2718      2720      2721
      2717      2718      2720      2722      2717      2718      2720      2770
      2718      2720      2770      2771      2718      2720      2770      2772
      2718      2720      2770      2773      2719      2718      2720      2721
      2719      2718      2720      2722      2719      2718      2720      2770
      2720      2770      2773      2774      2720      2770      2773      2775
      2720      2770      2773      2776      2721      2720      2770      2771
      2721      2720      2770      2772      2721      2720      2770      2773
      2722      2720      2770      2771      2722      2720      2770      2772
      2722      2720      2770      2773      2723      2726      2729      2730
      2723      2726      2729      2731      2724      2723      2726      2727
      2724      2723      2726      2728      2724      2723      2726      2729
      2725      2723      2726      2727      2725      2723      2726      2728
      2725      2723      2726      2729      2726      2729      2731      2732
      2726      2729      2731      2733      2727      2726      2729      2730
      2727      2726      2729      2731      2728      2726      2729      2730
      2728      2726      2729      2731      2729      2731      2733      2734
      2729      2731      2733      2735      2729      2731      2733      2736
      2730      2729      2731      2732      2730      2729      2731      2733
      2731      2733      2736      2737      2731      2733      2736      2738
      2732      2731      2733      2734      2732      2731      2733      2735
      2732      2731      2733      2736      2733      2736      2738      2739
      2733      2736      2738      2740      2734      2733      2736      2737
      2734      2733      2736      2738      2735      2733      2736      2737
      2735      2733      2736      2738      2736      2738      2740      2741
      2736      2738      2740      2742      2736      2738      2740      2743
      2737      2736      2738      2739      2737      2736      2738      2740
      2738      2740      2743      2744      2738      2740      2743      2745
      2739      2738      2740      2741      2739      2738      2740      2742
      2739      2738      2740      2743      2740      2743      2745      2746
      2740      2743      2745      2747      2741      2740      2743      2744
      2741      2740      2743      2745      2742      2740      2743      2744
      2742      2740      2743      2745      2743      2745      2747      2748
      2743      2745      2747      2749      2743      2745      2747      2750
      2744      2743      2745      2746      2744      2743      2745      2747
      2745      2747      2750      2751      2745      2747      2750      2752
      2746      2745      2747      2748      2746      2745      2747      2749
      2746      2745      2747      2750      2747      2750      2752      2753
      2747      2750      2752      2754      2748      2747      2750      2751
      2748      2747      2750      2752      2749      2747      2750      2751
      2749      2747      2750      2752      2750      2752      2754      2755
      2750      2752      2754      2756      2750      2752      2754      2757
      2751      2750      2752      2753      2751      2750      2752      2754
      2752      2754      2757      2758      2752      2754      2757      2759
      2752      2754      2757      2760      2753      2752      2754      2755
      2753      2752      2754      2756      2753      2752      2754      2757
      2754      2757      2760      2761      2754      2757      2760      2762
      2754      2757      2760      2763      2755      2754      2757      2758
      2755      2754      2757      2759      2755      2754      2757      2760
      2756      2754      2757      2758      2756      2754      2757      2759
      2756      2754      2757      2760      2757      2760      2763      2764
      2757      2760      2763      2765      2757      2760      2763      2766
      2758      2757      2760      2761      2758      2757      2760      2762
      2758      2757      2760      2763      2759      2757      2760      2761
      2759      2757      2760      2762      2759      2757      2760      2763
      2760      2763      2766      2767      2760      2763      2766      2768
      2760      2763      2766      2769      2761      2760      2763      2764
      2761      2760      2763      2765      2761      2760      2763      2766
      2762      2760      2763      2764      2762      2760      2763      2765
      2762      2760      2763      2766      2764      2763      2766      2767
      2764      2763      2766      2768      2764      2763      2766      2769
      2765      2763      2766      2767      2765      2763      2766      2768
      2765      2763      2766      2769      2770      2773      2776      2777
      2770      2773      2776      2778      2770      2773      2776      2779
      2771      2770      2773      2774      2771      2770      2773      2775
      2771      2770      2773      2776      2772      2770      2773      2774
      2772      2770      2773      2775      2772      2770      2773      2776
      2773      2776      2779      2780      2773      2776      2779      2781
      2773      2776      2779      2782      2774      2773      2776      2777
      2774      2773      2776      2778      2774      2773      2776      2779
      2775      2773      2776      2777      2775      2773      2776      2778
      2775      2773      2776      2779      2776      2779      2782      2783
      2776      2779      2782      2784      2776      2779      2782      2785
      2777      2776      2779      2780      2777      2776      2779      2781
      2777      2776      2779      2782      2778      2776      2779      2780
      2778      2776      2779      2781      2778      2776      2779      2782
      2779      2782      2785      2786      2779      2782      2785      2787
      2779      2782      2785      2788      2780      2779      2782      2783
      2780      2779      2782      2784      2780      2779      2782      2785
      2781      2779      2782      2783      2781      2779      2782      2784
      2781      2779      2782      2785      2782      2785      2788      2789
      2782      2785      2788      2790      2782      2785      2788      2791
      2783      2782      2785      2786      2783      2782      2785      2787
      2783      2782      2785      2788      2784      2782      2785      2786
      2784      2782      2785      2787      2784      2782      2785      2788
      2785      2788      2791      2792      2785      2788      2791      2793
      2785      2788      2791      2794      2786      2785      2788      2789
      2786      2785      2788      2790      2786      2785      2788      2791
      2787      2785      2788      2789      2787      2785      2788      2790
      2787      2785      2788      2791      2788      2791      2794      2795
      2788      2791      2794      2796      2788      2791      2794      2797
      2789      2788      2791      2792      2789      2788      2791      2793
      2789      2788      2791      2794      2790      2788      2791      2792
      2790      2788      2791      2793      2790      2788      2791      2794
      2791      2794      2797      2798      2791      2794      2797      2799
      2791      2794      2797      2800      2792      2791      2794      2795
      2792      2791      2794      2796      2792      2791      2794      2797
      2793      2791      2794      2795      2793      2791      2794      2796
      2793      2791      2794      2797      2794      2797      2800      2801
      2794      2797      2800      2802      2794      2797      2800      2803
      2795      2794      2797      2798      2795      2794      2797      2799
      2795      2794      2797      2800      2796      2794      2797      2798
      2796      2794      2797      2799      2796      2794      2797      2800
      2797      2800      2803      2804      2797      2800      2803      2805
      2797      2800      2803      2806      2798      2797      2800      2801
      2798      2797      2800      2802      2798      2797      2800      2803
      2799      2797      2800      2801      2799      2797      2800      2802
      2799      2797      2800      2803      2800      2803      2806      2807
      2800      2803      2806      2808      2800      2803      2806      2809
      2801      2800      2803      2804      2801      2800      2803      2805
      2801      2800      2803      2806      2802      2800      2803      2804
      2802      2800      2803      2805      2802      2800      2803      2806
      2803      2806      2809      2810      2803      2806      2809      2811
      2803      2806      2809      2812      2804      2803      2806      2807
      2804      2803      2806      2808      2804      2803      2806      2809
      2805      2803      2806      2807      2805      2803      2806      2808
      2805      2803      2806      2809      2806      2809      2812      2813
      2806      2809      2812      2814      2806      2809      2812      2815
      2807      2806      2809      2810      2807      2806      2809      2811
      2807      2806      2809      2812      2808      2806      2809      2810
      2808      2806      2809      2811      2808      2806      2809      2812
      2809      2812      2815      2816      2809      2812      2815      2817
      2809      2812      2815      2818      2810      2809      2812      2813
      2810      2809      2812      2814      2810      2809      2812      2815
      2811      2809      2812      2813      2811      2809      2812      2814
      2811      2809      2812      2815      2813      2812      2815      2816
      2813      2812      2815      2817      2813      2812      2815      2818
      2814      2812      2815      2816      2814      2812      2815      2817
      2814      2812      2815      2818      2819      2823      2826      2827
      2819      2823      2826      2857      2819      2865      2862      2857
      2819      2865      2862      2863      2819      2865      2862      2864
      2820      2819      2821      2822      2820      2819      2823      2824
      2820      2819      2823      2825      2820      2819      2823      2826
      2820      2819      2865      2862      2820      2819      2865      2866
      2820      2819      2865      2867      2821      2819      2823      2824
      2821      2819      2823      2825      2821      2819      2823      2826
      2821      2819      2865      2862      2821      2819      2865      2866
      2821      2819      2865      2867      2822      2821      2819      2823
      2822      2821      2819      2865      2823      2819      2865      2862
      2823      2819      2865      2866      2823      2819      2865      2867
      2823      2826      2827      2828      2823      2826      2827      2829
      2823      2826      2857      2855      2823      2826      2857      2858
      2823      2826      2857      2862      2824      2823      2819      2865
      2824      2823      2826      2827      2824      2823      2826      2857
      2825      2823      2819      2865      2825      2823      2826      2827
      2825      2823      2826      2857      2826      2823      2819      2865
      2826      2827      2829      2830      2826      2827      2829      2831
      2826      2827      2829      2832      2826      2857      2855      2832
      2826      2857      2855      2852      2826      2857      2855      2856
      2826      2857      2858      2859      2826      2857      2858      2860
      2826      2857      2858      2861      2826      2857      2862      2863
      2826      2857      2862      2864      2826      2857      2862      2865
      2827      2826      2857      2855      2827      2826      2857      2858
      2827      2826      2857      2862      2827      2829      2832      2833
      2827      2829      2832      2834      2827      2829      2832      2855
      2828      2827      2826      2857      2828      2827      2829      2830
      2828      2827      2829      2831      2828      2827      2829      2832
      2829      2827      2826      2857      2829      2832      2834      2835
      2829      2832      2834      2836      2829      2832      2834      2844
      2829      2832      2855      2852      2829      2832      2855      2856
      2829      2832      2855      2857      2830      2829      2832      2833
      2830      2829      2832      2834      2830      2829      2832      2855
      2831      2829      2832      2833      2831      2829      2832      2834
      2831      2829      2832      2855      2832      2834      2836      2837
      2832      2834      2836      2838      2832      2834      2836      2839
      2832      2834      2844      2842      2832      2834      2844      2845
      2832      2834      2844      2849      2832      2855      2852      2849
      2832      2855      2852      2853      2832      2855      2852      2854
      2832      2855      2857      2858      2832      2855      2857      2862
      2833      2832      2834      2835      2833      2832      2834      2836
      2833      2832      2834      2844      2833      2832      2855      2852
      2833      2832      2855      2856      2833      2832      2855      2857
      2834      2832      2855      2852      2834      2832      2855      2856
      2834      2832      2855      2857      2834      2836      2839      2840
      2834      2836      2839      2841      2834      2836      2839      2842
      2834      2844      2842      2839      2834      2844      2842      2843
      2834      2844      2842      2868      2834      2844      2845      2846
      2834      2844      2845      2847      2834      2844      2845      2848
      2834      2844      2849      2850      2834      2844      2849      2851
      2834      2844      2849      2852      2835      2834      2832      2855
      2835      2834      2836      2837      2835      2834      2836      2838
      2835      2834      2836      2839      2835      2834      2844      2842
      2835      2834      2844      2845      2835      2834      2844      2849
      2836      2834      2832      2855      2836      2834      2844      2842
      2836      2834      2844      2845      2836      2834      2844      2849
      2836      2839      2842      2843      2836      2839      2842      2844
      2836      2839      2842      2868      2837      2836      2834      2844
      2837      2836      2839      2840      2837      2836      2839      2841
      2837      2836      2839      2842      2838      2836      2834      2844
      2838      2836      2839      2840      2838      2836      2839      2841
      2838      2836      2839      2842      2839      2836      2834      2844
      2839      2842      2844      2845      2839      2842      2844      2849
      2839      2842      2868      2869      2839      2842      2868      2870
      2839      2842      2868      2874      2840      2839      2842      2843
      2840      2839      2842      2844      2840      2839      2842      2868
      2841      2839      2842      2843      2841      2839      2842      2844
      2841      2839      2842      2868      2842      2844      2845      2846
      2842      2844      2845      2847      2842      2844      2845      2848
      2842      2844      2849      2850      2842      2844      2849      2851
      2842      2844      2849      2852      2842      2868      2870      2871
      2842      2868      2870      2872      2842      2868      2870      2873
      2842      2868      2874      2875      2842      2868      2874      2876
      2842      2868      2874      2877      2843      2842      2844      2845
      2843      2842      2844      2849      2843      2842      2868      2869
      2843      2842      2868      2870      2843      2842      2868      2874
      2844      2834      2832      2855      2844      2842      2868      2869
      2844      2842      2868      2870      2844      2842      2868      2874
      2844      2849      2852      2853      2844      2849      2852      2854
      2844      2849      2852      2855      2845      2844      2842      2868
      2845      2844      2849      2850      2845      2844      2849      2851
      2845      2844      2849      2852      2846      2845      2844      2849
      2847      2845      2844      2849      2848      2845      2844      2849
      2849      2844      2842      2868      2849      2852      2855      2856
      2849      2852      2855      2857      2850      2849      2852      2853
      2850      2849      2852      2854      2850      2849      2852      2855
      2851      2849      2852      2853      2851      2849      2852      2854
      2851      2849      2852      2855      2852      2855      2857      2858
      2852      2855      2857      2862      2853      2852      2855      2856
      2853      2852      2855      2857      2854      2852      2855      2856
      2854      2852      2855      2857      2855      2857      2858      2859
      2855      2857      2858      2860      2855      2857      2858      2861
      2855      2857      2862      2863      2855      2857      2862      2864
      2855      2857      2862      2865      2856      2855      2857      2858
      2856      2855      2857      2862      2857      2862      2865      2866
      2857      2862      2865      2867      2858      2857      2862      2863
      2858      2857      2862      2864      2858      2857      2862      2865
      2859      2858      2857      2862      2860      2858      2857      2862
      2861      2858      2857      2862      2863      2862      2865      2866
      2863      2862      2865      2867      2864      2862      2865      2866
      2864      2862      2865      2867      2868      2874      2877      2878
      2868      2874      2877      2879      2868      2874      2877      2880
      2869      2868      2870      2871      2869      2868      2870      2872
      2869      2868      2870      2873      2869      2868      2874      2875
      2869      2868      2874      2876      2869      2868      2874      2877
      2870      2868      2874      2875      2870      2868      2874      2876
      2870      2868      2874      2877      2871      2870      2868      2874
      2872      2870      2868      2874      2873      2870      2868      2874
      2874      2877      2880      2881      2874      2877      2880      2882
      2874      2877      2880      2883      2875      2874      2877      2878
      2875      2874      2877      2879      2875      2874      2877      2880
      2876      2874      2877      2878      2876      2874      2877      2879
      2876      2874      2877      2880      2877      2880      2883      2884
      2877      2880      2883      2885      2877      2880      2883      2889
      2878      2877      2880      2881      2878      2877      2880      2882
      2878      2877      2880      2883      2879      2877      2880      2881
      2879      2877      2880      2882      2879      2877      2880      2883
      2880      2883      2885      2886      2880      2883      2885      2887
      2880      2883      2885      2888      2880      2883      2889      2890
      2880      2883      2889      2891      2880      2883      2889      2892
      2881      2880      2883      2884      2881      2880      2883      2885
      2881      2880      2883      2889      2882      2880      2883      2884
      2882      2880      2883      2885      2882      2880      2883      2889
      2884      2883      2885      2886      2884      2883      2885      2887
      2884      2883      2885      2888      2884      2883      2889      2890
      2884      2883      2889      2891      2884      2883      2889      2892
      2885      2883      2889      2890      2885      2883      2889      2891
      2885      2883      2889      2892      2886      2885      2883      2889
      2887      2885      2883      2889      2888      2885      2883      2889
      2893      2897      2900      2901      2893      2897      2900      2902
      2893      2897      2900      2906      2894      2893      2897      2898
      2894      2893      2897      2899      2894      2893      2897      2900
      2895      2893      2897      2898      2895      2893      2897      2899
      2895      2893      2897      2900      2896      2893      2897      2898
      2896      2893      2897      2899      2896      2893      2897      2900
      2897      2900      2906      2903      2898      2897      2900      2901
      2898      2897      2900      2902      2898      2897      2900      2906
      2899      2897      2900      2901      2899      2897      2900      2902
      2899      2897      2900      2906      2900      2906      2903      2904
      2900      2906      2903      2905      2900      2906      2903      2907
      2901      2900      2906      2903      2902      2900      2906      2903
      2903      2907      2908      2909      2903      2907      2908      2910
      2903      2907      2908      2911      2904      2903      2907      2908
      2905      2903      2907      2908      2906      2903      2907      2908
      2907      2908      2911      2912      2907      2908      2911      2913
      2907      2908      2911      2919      2908      2911      2913      2914
      2908      2911      2919      2920      2908      2911      2919      2921
      2908      2911      2919      2922      2909      2908      2911      2912
      2909      2908      2911      2913      2909      2908      2911      2919
      2910      2908      2911      2912      2910      2908      2911      2913
      2910      2908      2911      2919      2911      2913      2914      2915
      2911      2913      2914      2916      2911      2919      2922      2923
      2912      2911      2913      2914      2912      2911      2919      2920
      2912      2911      2919      2921      2912      2911      2919      2922
      2913      2911      2919      2920      2913      2911      2919      2921
      2913      2911      2919      2922      2913      2914      2916      2917
      2913      2914      2916      2918      2913      2914      2916      2928
      2914      2913      2911      2919      2914      2916      2928      2929
      2914      2916      2928      2930      2914      2916      2928      2931
      2915      2914      2916      2917      2915      2914      2916      2918
      2915      2914      2916      2928      2916      2928      2931      2932
      2916      2928      2931      2933      2916      2928      2931      2934
      2917      2916      2928      2929      2917      2916      2928      2930
      2917      2916      2928      2931      2918      2916      2928      2929
      2918      2916      2928      2930      2918      2916      2928      2931
      2919      2922      2923      2924      2919      2922      2923      2925
      2920      2919      2922      2923      2921      2919      2922      2923
      2922      2923      2925      2926      2922      2923      2925      2927
      2922      2923      2925      2975      2923      2925      2975      2976
      2923      2925      2975      2977      2923      2925      2975      2978
      2924      2923      2925      2926      2924      2923      2925      2927
      2924      2923      2925      2975      2925      2975      2978      2979
      2925      2975      2978      2980      2925      2975      2978      2981
      2926      2925      2975      2976      2926      2925      2975      2977
      2926      2925      2975      2978      2927      2925      2975      2976
      2927      2925      2975      2977      2927      2925      2975      2978
      2928      2931      2934      2935      2928      2931      2934      2936
      2929      2928      2931      2932      2929      2928      2931      2933
      2929      2928      2931      2934      2930      2928      2931      2932
      2930      2928      2931      2933      2930      2928      2931      2934
      2931      2934      2936      2937      2931      2934      2936      2938
      2932      2931      2934      2935      2932      2931      2934      2936
      2933      2931      2934      2935      2933      2931      2934      2936
      2934      2936      2938      2939      2934      2936      2938      2940
      2934      2936      2938      2941      2935      2934      2936      2937
      2935      2934      2936      2938      2936      2938      2941      2942
      2936      2938      2941      2943      2937      2936      2938      2939
      2937      2936      2938      2940      2937      2936      2938      2941
      2938      2941      2943      2944      2938      2941      2943      2945
      2939      2938      2941      2942      2939      2938      2941      2943
      2940      2938      2941      2942      2940      2938      2941      2943
      2941      2943      2945      2946      2941      2943      2945      2947
      2941      2943      2945      2948      2942      2941      2943      2944
      2942      2941      2943      2945      2943      2945      2948      2949
      2943      2945      2948      2950      2944      2943      2945      2946
      2944      2943      2945      2947      2944      2943      2945      2948
      2945      2948      2950      2951      2945      2948      2950      2952
      2946      2945      2948      2949      2946      2945      2948      2950
      2947      2945      2948      2949      2947      2945      2948      2950
      2948      2950      2952      2953      2948      2950      2952      2954
      2948      2950      2952      2955      2949      2948      2950      2951
      2949      2948      2950      2952      2950      2952      2955      2956
      2950      2952      2955      2957      2951      2950      2952      2953
      2951      2950      2952      2954      2951      2950      2952      2955
      2952      2955      2957      2958      2952      2955      2957      2959
      2953      2952      2955      2956      2953      2952      2955      2957
      2954      2952      2955      2956      2954      2952      2955      2957
      2955      2957      2959      2960      2955      2957      2959      2961
      2955      2957      2959      2962      2956      2955      2957      2958
      2956      2955      2957      2959      2957      2959      2962      2963
      2957      2959      2962      2964      2957      2959      2962      2965
      2958      2957      2959      2960      2958      2957      2959      2961
      2958      2957      2959      2962      2959      2962      2965      2966
      2959      2962      2965      2967      2959      2962      2965      2968
      2960      2959      2962      2963      2960      2959      2962      2964
      2960      2959      2962      2965      2961      2959      2962      2963
      2961      2959      2962      2964      2961      2959      2962      2965
      2962      2965      2968      2969      2962      2965      2968      2970
      2962      2965      2968      2971      2963      2962      2965      2966
      2963      2962      2965      2967      2963      2962      2965      2968
      2964      2962      2965      2966      2964      2962      2965      2967
      2964      2962      2965      2968      2965      2968      2971      2972
      2965      2968      2971      2973      2965      2968      2971      2974
      2966      2965      2968      2969      2966      2965      2968      2970
      2966      2965      2968      2971      2967      2965      2968      2969
      2967      2965      2968      2970      2967      2965      2968      2971
      2969      2968      2971      2972      2969      2968      2971      2973
      2969      2968      2971      2974      2970      2968      2971      2972
      2970      2968      2971      2973      2970      2968      2971      2974
      2975      2978      2981      2982      2975      2978      2981      2983
      2975      2978      2981      2984      2976      2975      2978      2979
      2976      2975      2978      2980      2976      2975      2978      2981
      2977      2975      2978      2979      2977      2975      2978      2980
      2977      2975      2978      2981      2978      2981      2984      2985
      2978      2981      2984      2986      2978      2981      2984      2987
      2979      2978      2981      2982      2979      2978      2981      2983
      2979      2978      2981      2984      2980      2978      2981      2982
      2980      2978      2981      2983      2980      2978      2981      2984
      2981      2984      2987      2988      2981      2984      2987      2989
      2981      2984      2987      2990      2982      2981      2984      2985
      2982      2981      2984      2986      2982      2981      2984      2987
      2983      2981      2984      2985      2983      2981      2984      2986
      2983      2981      2984      2987      2984      2987      2990      2991
      2984      2987      2990      2992      2984      2987      2990      2993
      2985      2984      2987      2988      2985      2984      2987      2989
      2985      2984      2987      2990      2986      2984      2987      2988
      2986      2984      2987      2989      2986      2984      2987      2990
      2987      2990      2993      2994      2987      2990      2993      2995
      2987      2990      2993      2996      2988      2987      2990      2991
      2988      2987      2990      2992      2988      2987      2990      2993
      2989      2987      2990      2991      2989      2987      2990      2992
      2989      2987      2990      2993      2990      2993      2996      2997
      2990      2993      2996      2998      2990      2993      2996      2999
      2991      2990      2993      2994      2991      2990      2993      2995
      2991      2990      2993      2996      2992      2990      2993      2994
      2992      2990      2993      2995      2992      2990      2993      2996
      2993      2996      2999      3000      2993      2996      2999      3001
      2993      2996      2999      3002      2994      2993      2996      2997
      2994      2993      2996      2998      2994      2993      2996      2999
      2995      2993      2996      2997      2995      2993      2996      2998
      2995      2993      2996      2999      2996      2999      3002      3003
      2996      2999      3002      3004      2996      2999      3002      3005
      2997      2996      2999      3000      2997      2996      2999      3001
      2997      2996      2999      3002      2998      2996      2999      3000
      2998      2996      2999      3001      2998      2996      2999      3002
      2999      3002      3005      3006      2999      3002      3005      3007
      2999      3002      3005      3008      3000      2999      3002      3003
      3000      2999      3002      3004      3000      2999      3002      3005
      3001      2999      3002      3003      3001      2999      3002      3004
      3001      2999      3002      3005      3002      3005      3008      3009
      3002      3005      3008      3010      3002      3005      3008      3011
      3003      3002      3005      3006      3003      3002      3005      3007
      3003      3002      3005      3008      3004      3002      3005      3006
      3004      3002      3005      3007      3004      3002      3005      3008
      3005      3008      3011      3012      3005      3008      3011      3013
      3005      3008      3011      3014      3006      3005      3008      3009
      3006      3005      3008      3010      3006      3005      3008      3011
      3007      3005      3008      3009      3007      3005      3008      3010
      3007      3005      3008      3011      3008      3011      3014      3015
      3008      3011      3014      3016      3008      3011      3014      3017
      3009      3008      3011      3012      3009      3008      3011      3013
      3009      3008      3011      3014      3010      3008      3011      3012
      3010      3008      3011      3013      3010      3008      3011      3014
      3011      3014      3017      3018      3011      3014      3017      3019
      3011      3014      3017      3020      3012      3011      3014      3015
      3012      3011      3014      3016      3012      3011      3014      3017
      3013      3011      3014      3015      3013      3011      3014      3016
      3013      3011      3014      3017      3014      3017      3020      3021
      3014      3017      3020      3022      3014      3017      3020      3023
      3015      3014      3017      3018      3015      3014      3017      3019
      3015      3014      3017      3020      3016      3014      3017      3018
      3016      3014      3017      3019      3016      3014      3017      3020
      3018      3017      3020      3021      3018      3017      3020      3022
      3018      3017      3020      3023      3019      3017      3020      3021
      3019      3017      3020      3022      3019      3017      3020      3023
      3024      3025      3040      3041      3024      3025      3040      3042
      3024      3025      3040      3046      3025      3024      3028      3029
      3025      3024      3028      3030      3025      3024      3028      3031
      3025      3024      3032      3033      3025      3024      3032      3034
      3025      3024      3032      3035      3025      3024      3036      3037
      3025      3024      3036      3038      3025      3024      3036      3039
      3025      3040      3046      3043      3026      3025      3024      3028
      3026      3025      3024      3032      3026      3025      3024      3036
      3026      3025      3040      3041      3026      3025      3040      3042
      3026      3025      3040      3046      3027      3025      3024      3028
      3027      3025      3024      3032      3027      3025      3024      3036
      3027      3025      3040      3041      3027      3025      3040      3042
      3027      3025      3040      3046      3028      3024      3025      3040
      3028      3024      3032      3033      3028      3024      3032      3034
      3028      3024      3032      3035      3028      3024      3036      3037
      3028      3024      3036      3038      3028      3024      3036      3039
      3029      3028      3024      3032      3029      3028      3024      3036
      3030      3028      3024      3032      3030      3028      3024      3036
      3031      3028      3024      3032      3031      3028      3024      3036
      3032      3024      3025      3040      3032      3024      3036      3037
      3032      3024      3036      3038      3032      3024      3036      3039
      3033      3032      3024      3036      3034      3032      3024      3036
      3035      3032      3024      3036      3036      3024      3025      3040
      3040      3046      3043      3044      3040      3046      3043      3045
      3040      3046      3043      3047      3041      3040      3046      3043
      3042      3040      3046      3043      3043      3047      3048      3049
      3043      3047      3048      3050      3043      3047      3048      3051
      3044      3043      3047      3048      3045      3043      3047      3048
      3046      3043      3047      3048      3047      3048      3051      3052
      3047      3048      3051      3053      3047      3048      3051      3059
      3048      3051      3053      3054      3048      3051      3059      3060
      3048      3051      3059      3061      3048      3051      3059      3062
      3049      3048      3051      3052      3049      3048      3051      3053
      3049      3048      3051      3059      3050      3048      3051      3052
      3050      3048      3051      3053      3050      3048      3051      3059
      3051      3053      3054      3055      3051      3053      3054      3056
      3051      3059      3062      3063      3052      3051      3053      3054
      3052      3051      3059      3060      3052      3051      3059      3061
      3052      3051      3059      3062      3053      3051      3059      3060
      3053      3051      3059      3061      3053      3051      3059      3062
      3053      3054      3056      3057      3053      3054      3056      3058
      3053      3054      3056      3068      3054      3053      3051      3059
      3054      3056      3068      3069      3054      3056      3068      3070
      3054      3056      3068      3071      3055      3054      3056      3057
      3055      3054      3056      3058      3055      3054      3056      3068
      3056      3068      3071      3072      3056      3068      3071      3073
      3056      3068      3071      3074      3057      3056      3068      3069
      3057      3056      3068      3070      3057      3056      3068      3071
      3058      3056      3068      3069      3058      3056      3068      3070
      3058      3056      3068      3071      3059      3062      3063      3064
      3059      3062      3063      3065      3060      3059      3062      3063
      3061      3059      3062      3063      3062      3063      3065      3066
      3062      3063      3065      3067      3062      3063      3065      3115
      3063      3065      3115      3116      3063      3065      3115      3117
      3063      3065      3115      3118      3064      3063      3065      3066
      3064      3063      3065      3067      3064      3063      3065      3115
      3065      3115      3118      3119      3065      3115      3118      3120
      3065      3115      3118      3121      3066      3065      3115      3116
      3066      3065      3115      3117      3066      3065      3115      3118
      3067      3065      3115      3116      3067      3065      3115      3117
      3067      3065      3115      3118      3068      3071      3074      3075
      3068      3071      3074      3076      3069      3068      3071      3072
      3069      3068      3071      3073      3069      3068      3071      3074
      3070      3068      3071      3072      3070      3068      3071      3073
      3070      3068      3071      3074      3071      3074      3076      3077
      3071      3074      3076      3078      3072      3071      3074      3075
      3072      3071      3074      3076      3073      3071      3074      3075
      3073      3071      3074      3076      3074      3076      3078      3079
      3074      3076      3078      3080      3074      3076      3078      3081
      3075      3074      3076      3077      3075      3074      3076      3078
      3076      3078      3081      3082      3076      3078      3081      3083
      3077      3076      3078      3079      3077      3076      3078      3080
      3077      3076      3078      3081      3078      3081      3083      3084
      3078      3081      3083      3085      3079      3078      3081      3082
      3079      3078      3081      3083      3080      3078      3081      3082
      3080      3078      3081      3083      3081      3083      3085      3086
      3081      3083      3085      3087      3081      3083      3085      3088
      3082      3081      3083      3084      3082      3081      3083      3085
      3083      3085      3088      3089      3083      3085      3088      3090
      3084      3083      3085      3086      3084      3083      3085      3087
      3084      3083      3085      3088      3085      3088      3090      3091
      3085      3088      3090      3092      3086      3085      3088      3089
      3086      3085      3088      3090      3087      3085      3088      3089
      3087      3085      3088      3090      3088      3090      3092      3093
      3088      3090      3092      3094      3088      3090      3092      3095
      3089      3088      3090      3091      3089      3088      3090      3092
      3090      3092      3095      3096      3090      3092      3095      3097
      3091      3090      3092      3093      3091      3090      3092      3094
      3091      3090      3092      3095      3092      3095      3097      3098
      3092      3095      3097      3099      3093      3092      3095      3096
      3093      3092      3095      3097      3094      3092      3095      3096
      3094      3092      3095      3097      3095      3097      3099      3100
      3095      3097      3099      3101      3095      3097      3099      3102
      3096      3095      3097      3098      3096      3095      3097      3099
      3097      3099      3102      3103      3097      3099      3102      3104
      3097      3099      3102      3105      3098      3097      3099      3100
      3098      3097      3099      3101      3098      3097      3099      3102
      3099      3102      3105      3106      3099      3102      3105      3107
      3099      3102      3105      3108      3100      3099      3102      3103
      3100      3099      3102      3104      3100      3099      3102      3105
      3101      3099      3102      3103      3101      3099      3102      3104
      3101      3099      3102      3105      3102      3105      3108      3109
      3102      3105      3108      3110      3102      3105      3108      3111
      3103      3102      3105      3106      3103      3102      3105      3107
      3103      3102      3105      3108      3104      3102      3105      3106
      3104      3102      3105      3107      3104      3102      3105      3108
      3105      3108      3111      3112      3105      3108      3111      3113
      3105      3108      3111      3114      3106      3105      3108      3109
      3106      3105      3108      3110      3106      3105      3108      3111
      3107      3105      3108      3109      3107      3105      3108      3110
      3107      3105      3108      3111      3109      3108      3111      3112
      3109      3108      3111      3113      3109      3108      3111      3114
      3110      3108      3111      3112      3110      3108      3111      3113
      3110      3108      3111      3114      3115      3118      3121      3122
      3115      3118      3121      3123      3115      3118      3121      3124
      3116      3115      3118      3119      3116      3115      3118      3120
      3116      3115      3118      3121      3117      3115      3118      3119
      3117      3115      3118      3120      3117      3115      3118      3121
      3118      3121      3124      3125      3118      3121      3124      3126
      3118      3121      3124      3127      3119      3118      3121      3122
      3119      3118      3121      3123      3119      3118      3121      3124
      3120      3118      3121      3122      3120      3118      3121      3123
      3120      3118      3121      3124      3121      3124      3127      3128
      3121      3124      3127      3129      3121      3124      3127      3130
      3122      3121      3124      3125      3122      3121      3124      3126
      3122      3121      3124      3127      3123      3121      3124      3125
      3123      3121      3124      3126      3123      3121      3124      3127
      3124      3127      3130      3131      3124      3127      3130      3132
      3124      3127      3130      3133      3125      3124      3127      3128
      3125      3124      3127      3129      3125      3124      3127      3130
      3126      3124      3127      3128      3126      3124      3127      3129
      3126      3124      3127      3130      3127      3130      3133      3134
      3127      3130      3133      3135      3127      3130      3133      3136
      3128      3127      3130      3131      3128      3127      3130      3132
      3128      3127      3130      3133      3129      3127      3130      3131
      3129      3127      3130      3132      3129      3127      3130      3133
      3130      3133      3136      3137      3130      3133      3136      3138
      3130      3133      3136      3139      3131      3130      3133      3134
      3131      3130      3133      3135      3131      3130      3133      3136
      3132      3130      3133      3134      3132      3130      3133      3135
      3132      3130      3133      3136      3133      3136      3139      3140
      3133      3136      3139      3141      3133      3136      3139      3142
      3134      3133      3136      3137      3134      3133      3136      3138
      3134      3133      3136      3139      3135      3133      3136      3137
      3135      3133      3136      3138      3135      3133      3136      3139
      3136      3139      3142      3143      3136      3139      3142      3144
      3136      3139      3142      3145      3137      3136      3139      3140
      3137      3136      3139      3141      3137      3136      3139      3142
      3138      3136      3139      3140      3138      3136      3139      3141
      3138      3136      3139      3142      3139      3142      3145      3146
      3139      3142      3145      3147      3139      3142      3145      3148
      3140      3139      3142      3143      3140      3139      3142      3144
      3140      3139      3142      3145      3141      3139      3142      3143
      3141      3139      3142      3144      3141      3139      3142      3145
      3142      3145      3148      3149      3142      3145      3148      3150
      3142      3145      3148      3151      3143      3142      3145      3146
      3143      3142      3145      3147      3143      3142      3145      3148
      3144      3142      3145      3146      3144      3142      3145      3147
      3144      3142      3145      3148      3145      3148      3151      3152
      3145      3148      3151      3153      3145      3148      3151      3154
      3146      3145      3148      3149      3146      3145      3148      3150
      3146      3145      3148      3151      3147      3145      3148      3149
      3147      3145      3148      3150      3147      3145      3148      3151
      3148      3151      3154      3155      3148      3151      3154      3156
      3148      3151      3154      3157      3149      3148      3151      3152
      3149      3148      3151      3153      3149      3148      3151      3154
      3150      3148      3151      3152      3150      3148      3151      3153
      3150      3148      3151      3154      3151      3154      3157      3158
      3151      3154      3157      3159      3151      3154      3157      3160
      3152      3151      3154      3155      3152      3151      3154      3156
      3152      3151      3154      3157      3153      3151      3154      3155
      3153      3151      3154      3156      3153      3151      3154      3157
      3154      3157      3160      3161      3154      3157      3160      3162
      3154      3157      3160      3163      3155      3154      3157      3158
      3155      3154      3157      3159      3155      3154      3157      3160
      3156      3154      3157      3158      3156      3154      3157      3159
      3156      3154      3157      3160      3158      3157      3160      3161
      3158      3157      3160      3162      3158      3157      3160      3163
      3159      3157      3160      3161      3159      3157      3160      3162
      3159      3157      3160      3163      3164      3177      3180      3181
      3164      3177      3180      3182      3164      3177      3180      3186
      3165      3164      3169      3170      3165      3164      3169      3171
      3165      3164      3169      3172      3165      3164      3173      3174
      3165      3164      3173      3175      3165      3164      3173      3176
      3165      3164      3177      3178      3165      3164      3177      3179
      3165      3164      3177      3180      3166      3165      3164      3169
      3166      3165      3164      3173      3166      3165      3164      3177
      3167      3165      3164      3169      3167      3165      3164      3173
      3167      3165      3164      3177      3168      3165      3164      3169
      3168      3165      3164      3173      3168      3165      3164      3177
      3169      3164      3173      3174      3169      3164      3173      3175
      3169      3164      3173      3176      3169      3164      3177      3178
      3169      3164      3177      3179      3169      3164      3177      3180
      3170      3169      3164      3173      3170      3169      3164      3177
      3171      3169      3164      3173      3171      3169      3164      3177
      3172      3169      3164      3173      3172      3169      3164      3177
      3173      3164      3177      3178      3173      3164      3177      3179
      3173      3164      3177      3180      3174      3173      3164      3177
      3175      3173      3164      3177      3176      3173      3164      3177
      3177      3180      3186      3183      3178      3177      3180      3181
      3178      3177      3180      3182      3178      3177      3180      3186
      3179      3177      3180      3181      3179      3177      3180      3182
      3179      3177      3180      3186      3180      3186      3183      3184
      3180      3186      3183      3185      3180      3186      3183      3187
      3181      3180      3186      3183      3182      3180      3186      3183
      3183      3187      3188      3189      3183      3187      3188      3190
      3183      3187      3188      3191      3184      3183      3187      3188
      3185      3183      3187      3188      3186      3183      3187      3188
      3187      3188      3191      3192      3187      3188      3191      3193
      3187      3188      3191      3199      3188      3191      3193      3194
      3188      3191      3199      3200      3188      3191      3199      3201
      3188      3191      3199      3202      3189      3188      3191      3192
      3189      3188      3191      3193      3189      3188      3191      3199
      3190      3188      3191      3192      3190      3188      3191      3193
      3190      3188      3191      3199      3191      3193      3194      3195
      3191      3193      3194      3196      3191      3199      3202      3203
      3192      3191      3193      3194      3192      3191      3199      3200
      3192      3191      3199      3201      3192      3191      3199      3202
      3193      3191      3199      3200      3193      3191      3199      3201
      3193      3191      3199      3202      3193      3194      3196      3197
      3193      3194      3196      3198      3193      3194      3196      3208
      3194      3193      3191      3199      3194      3196      3208      3209
      3194      3196      3208      3210      3194      3196      3208      3211
      3195      3194      3196      3197      3195      3194      3196      3198
      3195      3194      3196      3208      3196      3208      3211      3212
      3196      3208      3211      3213      3196      3208      3211      3214
      3197      3196      3208      3209      3197      3196      3208      3210
      3197      3196      3208      3211      3198      3196      3208      3209
      3198      3196      3208      3210      3198      3196      3208      3211
      3199      3202      3203      3204      3199      3202      3203      3205
      3200      3199      3202      3203      3201      3199      3202      3203
      3202      3203      3205      3206      3202      3203      3205      3207
      3202      3203      3205      3253      3203      3205      3253      3254
      3203      3205      3253      3255      3203      3205      3253      3256
      3204      3203      3205      3206      3204      3203      3205      3207
      3204      3203      3205      3253      3205      3253      3256      3257
      3205      3253      3256      3258      3205      3253      3256      3259
      3206      3205      3253      3254      3206      3205      3253      3255
      3206      3205      3253      3256      3207      3205      3253      3254
      3207      3205      3253      3255      3207      3205      3253      3256
      3208      3211      3214      3215      3208      3211      3214      3216
      3208      3211      3214      3217      3209      3208      3211      3212
      3209      3208      3211      3213      3209      3208      3211      3214
      3210      3208      3211      3212      3210      3208      3211      3213
      3210      3208      3211      3214      3211      3214      3217      3218
      3211      3214      3217      3219      3211      3214      3217      3220
      3212      3211      3214      3215      3212      3211      3214      3216
      3212      3211      3214      3217      3213      3211      3214      3215
      3213      3211      3214      3216      3213      3211      3214      3217
      3214      3217      3220      3221      3214      3217      3220      3222
      3214      3217      3220      3223      3215      3214      3217      3218
      3215      3214      3217      3219      3215      3214      3217      3220
      3216      3214      3217      3218      3216      3214      3217      3219
      3216      3214      3217      3220      3217      3220      3223      3224
      3217      3220      3223      3225      3217      3220      3223      3226
      3218      3217      3220      3221      3218      3217      3220      3222
      3218      3217      3220      3223      3219      3217      3220      3221
      3219      3217      3220      3222      3219      3217      3220      3223
      3220      3223      3226      3227      3220      3223      3226      3228
      3221      3220      3223      3224      3221      3220      3223      3225
      3221      3220      3223      3226      3222      3220      3223      3224
      3222      3220      3223      3225      3222      3220      3223      3226
      3223      3226      3228      3229      3223      3226      3228      3230
      3224      3223      3226      3227      3224      3223      3226      3228
      3225      3223      3226      3227      3225      3223      3226      3228
      3226      3228      3230      3231      3226      3228      3230      3232
      3226      3228      3230      3233      3227      3226      3228      3229
      3227      3226      3228      3230      3228      3230      3233      3234
      3228      3230      3233      3235      3229      3228      3230      3231
      3229      3228      3230      3232      3229      3228      3230      3233
      3230      3233      3235      3236      3230      3233      3235      3237
      3231      3230      3233      3234      3231      3230      3233      3235
      3232      3230      3233      3234      3232      3230      3233      3235
      3233      3235      3237      3238      3233      3235      3237      3239
      3233      3235      3237      3240      3234      3233      3235      3236
      3234      3233      3235      3237      3235      3237      3240      3241
      3235      3237      3240      3242      3235      3237      3240      3243
      3236      3235      3237      3238      3236      3235      3237      3239
      3236      3235      3237      3240      3237      3240      3243      3244
      3237      3240      3243      3245      3237      3240      3243      3246
      3238      3237      3240      3241      3238      3237      3240      3242
      3238      3237      3240      3243      3239      3237      3240      3241
      3239      3237      3240      3242      3239      3237      3240      3243
      3240      3243      3246      3247      3240      3243      3246      3248
      3240      3243      3246      3249      3241      3240      3243      3244
      3241      3240      3243      3245      3241      3240      3243      3246
      3242      3240      3243      3244      3242      3240      3243      3245
      3242      3240      3243      3246      3243      3246      3249      3250
      3243      3246      3249      3251      3243      3246      3249      3252
      3244      3243      3246      3247      3244      3243      3246      3248
      3244      3243      3246      3249      3245      3243      3246      3247
      3245      3243      3246      3248      3245      3243      3246      3249
      3247      3246      3249      3250      3247      3246      3249      3251
      3247      3246      3249      3252      3248      3246      3249      3250
      3248      3246      3249      3251      3248      3246      3249      3252
      3253      3256      3259      3260      3253      3256      3259      3261
      3253      3256      3259      3262      3254      3253      3256      3257
      3254      3253      3256      3258      3254      3253      3256      3259
      3255      3253      3256      3257      3255      3253      3256      3258
      3255      3253      3256      3259      3256      3259      3262      3263
      3256      3259      3262      3264      3256      3259      3262      3265
      3257      3256      3259      3260      3257      3256      3259      3261
      3257      3256      3259      3262      3258      3256      3259      3260
      3258      3256      3259      3261      3258      3256      3259      3262
      3259      3262      3265      3266      3259      3262      3265      3267
      3259      3262      3265      3268      3260      3259      3262      3263
      3260      3259      3262      3264      3260      3259      3262      3265
      3261      3259      3262      3263      3261      3259      3262      3264
      3261      3259      3262      3265      3262      3265      3268      3269
      3262      3265      3268      3270      3262      3265      3268      3271
      3263      3262      3265      3266      3263      3262      3265      3267
      3263      3262      3265      3268      3264      3262      3265      3266
      3264      3262      3265      3267      3264      3262      3265      3268
      3265      3268      3271      3272      3265      3268      3271      3273
      3265      3268      3271      3274      3266      3265      3268      3269
      3266      3265      3268      3270      3266      3265      3268      3271
      3267      3265      3268      3269      3267      3265      3268      3270
      3267      3265      3268      3271      3268      3271      3274      3275
      3268      3271      3274      3276      3268      3271      3274      3277
      3269      3268      3271      3272      3269      3268      3271      3273
      3269      3268      3271      3274      3270      3268      3271      3272
      3270      3268      3271      3273      3270      3268      3271      3274
      3271      3274      3277      3278      3271      3274      3277      3279
      3271      3274      3277      3280      3272      3271      3274      3275
      3272      3271      3274      3276      3272      3271      3274      3277
      3273      3271      3274      3275      3273      3271      3274      3276
      3273      3271      3274      3277      3274      3277      3280      3281
      3274      3277      3280      3282      3274      3277      3280      3283
      3275      3274      3277      3278      3275      3274      3277      3279
      3275      3274      3277      3280      3276      3274      3277      3278
      3276      3274      3277      3279      3276      3274      3277      3280
      3277      3280      3283      3284      3277      3280      3283      3285
      3277      3280      3283      3286      3278      3277      3280      3281
      3278      3277      3280      3282      3278      3277      3280      3283
      3279      3277      3280      3281      3279      3277      3280      3282
      3279      3277      3280      3283      3280      3283      3286      3287
      3280      3283      3286      3288      3280      3283      3286      3289
      3281      3280      3283      3284      3281      3280      3283      3285
      3281      3280      3283      3286      3282      3280      3283      3284
      3282      3280      3283      3285      3282      3280      3283      3286
      3283      3286      3289      3290      3283      3286      3289      3291
      3283      3286      3289      3292      3284      3283      3286      3287
      3284      3283      3286      3288      3284      3283      3286      3289
      3285      3283      3286      3287      3285      3283      3286      3288
      3285      3283      3286      3289      3286      3289      3292      3293
      3286      3289      3292      3294      3286      3289      3292      3295
      3287      3286      3289      3290      3287      3286      3289      3291
      3287      3286      3289      3292      3288      3286      3289      3290
      3288      3286      3289      3291      3288      3286      3289      3292
      3289      3292      3295      3296      3289      3292      3295      3297
      3289      3292      3295      3298      3290      3289      3292      3293
      3290      3289      3292      3294      3290      3289      3292      3295
      3291      3289      3292      3293      3291      3289      3292      3294
      3291      3289      3292      3295      3292      3295      3298      3299
      3292      3295      3298      3300      3292      3295      3298      3301
      3293      3292      3295      3296      3293      3292      3295      3297
      3293      3292      3295      3298      3294      3292      3295      3296
      3294      3292      3295      3297      3294      3292      3295      3298
      3296      3295      3298      3299      3296      3295      3298      3300
      3296      3295      3298      3301      3297      3295      3298      3299
      3297      3295      3298      3300      3297      3295      3298      3301
      3302      3315      3318      3319      3302      3315      3318      3320
      3302      3315      3318      3325      3303      3302      3307      3308
      3303      3302      3307      3309      3303      3302      3307      3310
      3303      3302      3311      3312      3303      3302      3311      3313
      3303      3302      3311      3314      3303      3302      3315      3316
      3303      3302      3315      3317      3303      3302      3315      3318
      3304      3303      3302      3307      3304      3303      3302      3311
      3304      3303      3302      3315      3305      3303      3302      3307
      3305      3303      3302      3311      3305      3303      3302      3315
      3306      3303      3302      3307      3306      3303      3302      3311
      3306      3303      3302      3315      3307      3302      3311      3312
      3307      3302      3311      3313      3307      3302      3311      3314
      3307      3302      3315      3316      3307      3302      3315      3317
      3307      3302      3315      3318      3308      3307      3302      3311
      3308      3307      3302      3315      3309      3307      3302      3311
      3309      3307      3302      3315      3310      3307      3302      3311
      3310      3307      3302      3315      3311      3302      3315      3316
      3311      3302      3315      3317      3311      3302      3315      3318
      3312      3311      3302      3315      3313      3311      3302      3315
      3314      3311      3302      3315      3315      3318      3325      3321
      3316      3315      3318      3319      3316      3315      3318      3320
      3316      3315      3318      3325      3317      3315      3318      3319
      3317      3315      3318      3320      3317      3315      3318      3325
      3318      3325      3321      3322      3318      3325      3321      3323
      3318      3325      3321      3324      3319      3318      3325      3321
      3320      3318      3325      3321      3321      3324      3326      3327
      3321      3324      3326      3328      3321      3324      3326      3331
      3322      3321      3324      3326      3323      3321      3324      3326
      3324      3326      3331      3329      3324      3326      3331      3332
      3324      3326      3331      3333      3325      3321      3324      3326
      3326      3331      3329      3330      3326      3331      3329      3381
      3326      3331      3333      3334      3326      3331      3333      3335
      3326      3331      3333      3337      3327      3326      3331      3329
      3327      3326      3331      3332      3327      3326      3331      3333
      3328      3326      3331      3329      3328      3326      3331      3332
      3328      3326      3331      3333      3329      3331      3333      3334
      3329      3331      3333      3335      3329      3331      3333      3337
      3329      3381      3383      3384      3329      3381      3383      3385
      3329      3381      3383      3386      3330      3329      3331      3332
      3330      3329      3331      3333      3330      3329      3381      3382
      3330      3329      3381      3383      3331      3329      3381      3382
      3331      3329      3381      3383      3331      3333      3335      3336
      3331      3333      3337      3338      3331      3333      3337      3339
      3332      3331      3329      3381      3332      3331      3333      3334
      3332      3331      3333      3335      3332      3331      3333      3337
      3333      3331      3329      3381      3333      3337      3339      3340
      3333      3337      3339      3341      3334      3333      3335      3336
      3334      3333      3337      3338      3334      3333      3337      3339
      3335      3333      3337      3338      3335      3333      3337      3339
      3336      3335      3333      3337      3337      3339      3341      3342
      3337      3339      3341      3343      3337      3339      3341      3344
      3338      3337      3339      3340      3338      3337      3339      3341
      3339      3341      3344      3345      3339      3341      3344      3346
      3339      3341      3344      3347      3340      3339      3341      3342
      3340      3339      3341      3343      3340      3339      3341      3344
      3341      3344      3347      3348      3341      3344      3347      3349
      3341      3344      3347      3350      3342      3341      3344      3345
      3342      3341      3344      3346      3342      3341      3344      3347
      3343      3341      3344      3345      3343      3341      3344      3346
      3343      3341      3344      3347      3344      3347      3350      3351
      3344      3347      3350      3352      3344      3347      3350      3353
      3345      3344      3347      3348      3345      3344      3347      3349
      3345      3344      3347      3350      3346      3344      3347      3348
      3346      3344      3347      3349      3346      3344      3347      3350
      3347      3350      3353      3354      3347      3350      3353      3355
      3347      3350      3353      3356      3348      3347      3350      3351
      3348      3347      3350      3352      3348      3347      3350      3353
      3349      3347      3350      3351      3349      3347      3350      3352
      3349      3347      3350      3353      3350      3353      3356      3357
      3350      3353      3356      3358      3350      3353      3356      3359
      3351      3350      3353      3354      3351      3350      3353      3355
      3351      3350      3353      3356      3352      3350      3353      3354
      3352      3350      3353      3355      3352      3350      3353      3356
      3353      3356      3359      3360      3353      3356      3359      3361
      3353      3356      3359      3362      3354      3353      3356      3357
      3354      3353      3356      3358      3354      3353      3356      3359
      3355      3353      3356      3357      3355      3353      3356      3358
      3355      3353      3356      3359      3356      3359      3362      3363
      3356      3359      3362      3364      3356      3359      3362      3365
      3357      3356      3359      3360      3357      3356      3359      3361
      3357      3356      3359      3362      3358      3356      3359      3360
      3358      3356      3359      3361      3358      3356      3359      3362
      3359      3362      3365      3366      3359      3362      3365      3367
      3359      3362      3365      3368      3360      3359      3362      3363
      3360      3359      3362      3364      3360      3359      3362      3365
      3361      3359      3362      3363      3361      3359      3362      3364
      3361      3359      3362      3365      3362      3365      3368      3369
      3362      3365      3368      3370      3362      3365      3368      3371
      3363      3362      3365      3366      3363      3362      3365      3367
      3363      3362      3365      3368      3364      3362      3365      3366
      3364      3362      3365      3367      3364      3362      3365      3368
      3365      3368      3371      3372      3365      3368      3371      3373
      3365      3368      3371      3374      3366      3365      3368      3369
      3366      3365      3368      3370      3366      3365      3368      3371
      3367      3365      3368      3369      3367      3365      3368      3370
      3367      3365      3368      3371      3368      3371      3374      3375
      3368      3371      3374      3376      3368      3371      3374      3377
      3369      3368      3371      3372      3369      3368      3371      3373
      3369      3368      3371      3374      3370      3368      3371      3372
      3370      3368      3371      3373      3370      3368      3371      3374
      3371      3374      3377      3378      3371      3374      3377      3379
      3371      3374      3377      3380      3372      3371      3374      3375
      3372      3371      3374      3376      3372      3371      3374      3377
      3373      3371      3374      3375      3373      3371      3374      3376
      3373      3371      3374      3377      3375      3374      3377      3378
      3375      3374      3377      3379      3375      3374      3377      3380
      3376      3374      3377      3378      3376      3374      3377      3379
      3376      3374      3377      3380      3381      3383      3386      3387
      3381      3383      3386      3388      3381      3383      3386      3389
      3382      3381      3383      3384      3382      3381      3383      3385
      3382      3381      3383      3386      3383      3386      3389      3390
      3383      3386      3389      3391      3383      3386      3389      3392
      3384      3383      3386      3387      3384      3383      3386      3388
      3384      3383      3386      3389      3385      3383      3386      3387
      3385      3383      3386      3388      3385      3383      3386      3389
      3386      3389      3392      3393      3386      3389      3392      3394
      3386      3389      3392      3395      3387      3386      3389      3390
      3387      3386      3389      3391      3387      3386      3389      3392
      3388      3386      3389      3390      3388      3386      3389      3391
      3388      3386      3389      3392      3389      3392      3395      3396
      3389      3392      3395      3397      3389      3392      3395      3398
      3390      3389      3392      3393      3390      3389      3392      3394
      3390      3389      3392      3395      3391      3389      3392      3393
      3391      3389      3392      3394      3391      3389      3392      3395
      3392      3395      3398      3399      3392      3395      3398      3400
      3392      3395      3398      3401      3393      3392      3395      3396
      3393      3392      3395      3397      3393      3392      3395      3398
      3394      3392      3395      3396      3394      3392      3395      3397
      3394      3392      3395      3398      3395      3398      3401      3402
      3395      3398      3401      3403      3395      3398      3401      3404
      3396      3395      3398      3399      3396      3395      3398      3400
      3396      3395      3398      3401      3397      3395      3398      3399
      3397      3395      3398      3400      3397      3395      3398      3401
      3398      3401      3404      3405      3398      3401      3404      3406
      3399      3398      3401      3402      3399      3398      3401      3403
      3399      3398      3401      3404      3400      3398      3401      3402
      3400      3398      3401      3403      3400      3398      3401      3404
      3401      3404      3406      3407      3401      3404      3406      3408
      3402      3401      3404      3405      3402      3401      3404      3406
      3403      3401      3404      3405      3403      3401      3404      3406
      3404      3406      3408      3409      3404      3406      3408      3410
      3404      3406      3408      3411      3405      3404      3406      3407
      3405      3404      3406      3408      3406      3408      3411      3412
      3406      3408      3411      3413      3406      3408      3411      3414
      3407      3406      3408      3409      3407      3406      3408      3410
      3407      3406      3408      3411      3408      3411      3414      3415
      3408      3411      3414      3416      3408      3411      3414      3417
      3409      3408      3411      3412      3409      3408      3411      3413
      3409      3408      3411      3414      3410      3408      3411      3412
      3410      3408      3411      3413      3410      3408      3411      3414
      3411      3414      3417      3418      3411      3414      3417      3419
      3411      3414      3417      3420      3412      3411      3414      3415
      3412      3411      3414      3416      3412      3411      3414      3417
      3413      3411      3414      3415      3413      3411      3414      3416
      3413      3411      3414      3417      3414      3417      3420      3421
      3414      3417      3420      3422      3414      3417      3420      3423
      3415      3414      3417      3418      3415      3414      3417      3419
      3415      3414      3417      3420      3416      3414      3417      3418
      3416      3414      3417      3419      3416      3414      3417      3420
      3417      3420      3423      3424      3417      3420      3423      3425
      3417      3420      3423      3426      3418      3417      3420      3421
      3418      3417      3420      3422      3418      3417      3420      3423
      3419      3417      3420      3421      3419      3417      3420      3422
      3419      3417      3420      3423      3420      3423      3426      3427
      3420      3423      3426      3428      3420      3423      3426      3429
      3421      3420      3423      3424      3421      3420      3423      3425
      3421      3420      3423      3426      3422      3420      3423      3424
      3422      3420      3423      3425      3422      3420      3423      3426
      3423      3426      3429      3430      3423      3426      3429      3431
      3423      3426      3429      3432      3424      3423      3426      3427
      3424      3423      3426      3428      3424      3423      3426      3429
      3425      3423      3426      3427      3425      3423      3426      3428
      3425      3423      3426      3429      3427      3426      3429      3430
      3427      3426      3429      3431      3427      3426      3429      3432
      3428      3426      3429      3430      3428      3426      3429      3431
      3428      3426      3429      3432      3433      3437      3440      3441
      3433      3437      3440      3442      3433      3437      3440      3446
      3434      3433      3437      3438      3434      3433      3437      3439
      3434      3433      3437      3440      3435      3433      3437      3438
      3435      3433      3437      3439      3435      3433      3437      3440
      3436      3433      3437      3438      3436      3433      3437      3439
      3436      3433      3437      3440      3437      3440      3446      3443
      3438      3437      3440      3441      3438      3437      3440      3442
      3438      3437      3440      3446      3439      3437      3440      3441
      3439      3437      3440      3442      3439      3437      3440      3446
      3440      3446      3443      3444      3440      3446      3443      3445
      3440      3446      3443      3447      3441      3440      3446      3443
      3442      3440      3446      3443      3443      3447      3448      3449
      3443      3447      3448      3450      3443      3447      3448      3451
      3444      3443      3447      3448      3445      3443      3447      3448
      3446      3443      3447      3448      3447      3448      3451      3452
      3447      3448      3451      3453      3447      3448      3451      3459
      3448      3451      3453      3454      3448      3451      3459      3460
      3448      3451      3459      3461      3448      3451      3459      3462
      3449      3448      3451      3452      3449      3448      3451      3453
      3449      3448      3451      3459      3450      3448      3451      3452
      3450      3448      3451      3453      3450      3448      3451      3459
      3451      3453      3454      3455      3451      3453      3454      3456
      3451      3459      3462      3463      3452      3451      3453      3454
      3452      3451      3459      3460      3452      3451      3459      3461
      3452      3451      3459      3462      3453      3451      3459      3460
      3453      3451      3459      3461      3453      3451      3459      3462
      3453      3454      3456      3457      3453      3454      3456      3458
      3453      3454      3456      3468      3454      3453      3451      3459
      3454      3456      3468      3469      3454      3456      3468      3470
      3454      3456      3468      3471      3455      3454      3456      3457
      3455      3454      3456      3458      3455      3454      3456      3468
      3456      3468      3471      3472      3456      3468      3471      3473
      3456      3468      3471      3474      3457      3456      3468      3469
      3457      3456      3468      3470      3457      3456      3468      3471
      3458      3456      3468      3469      3458      3456      3468      3470
      3458      3456      3468      3471      3459      3462      3463      3464
      3459      3462      3463      3465      3460      3459      3462      3463
      3461      3459      3462      3463      3462      3463      3465      3466
      3462      3463      3465      3467      3462      3463      3465      3515
      3463      3465      3515      3516      3463      3465      3515      3517
      3463      3465      3515      3518      3464      3463      3465      3466
      3464      3463      3465      3467      3464      3463      3465      3515
      3465      3515      3518      3519      3465      3515      3518      3520
      3465      3515      3518      3521      3466      3465      3515      3516
      3466      3465      3515      3517      3466      3465      3515      3518
      3467      3465      3515      3516      3467      3465      3515      3517
      3467      3465      3515      3518      3468      3471      3474      3475
      3468      3471      3474      3476      3469      3468      3471      3472
      3469      3468      3471      3473      3469      3468      3471      3474
      3470      3468      3471      3472      3470      3468      3471      3473
      3470      3468      3471      3474      3471      3474      3476      3477
      3471      3474      3476      3478      3472      3471      3474      3475
      3472      3471      3474      3476      3473      3471      3474      3475
      3473      3471      3474      3476      3474      3476      3478      3479
      3474      3476      3478      3480      3474      3476      3478      3481
      3475      3474      3476      3477      3475      3474      3476      3478
      3476      3478      3481      3482      3476      3478      3481      3483
      3477      3476      3478      3479      3477      3476      3478      3480
      3477      3476      3478      3481      3478      3481      3483      3484
      3478      3481      3483      3485      3479      3478      3481      3482
      3479      3478      3481      3483      3480      3478      3481      3482
      3480      3478      3481      3483      3481      3483      3485      3486
      3481      3483      3485      3487      3481      3483      3485      3488
      3482      3481      3483      3484      3482      3481      3483      3485
      3483      3485      3488      3489      3483      3485      3488      3490
      3484      3483      3485      3486      3484      3483      3485      3487
      3484      3483      3485      3488      3485      3488      3490      3491
      3485      3488      3490      3492      3486      3485      3488      3489
      3486      3485      3488      3490      3487      3485      3488      3489
      3487      3485      3488      3490      3488      3490      3492      3493
      3488      3490      3492      3494      3488      3490      3492      3495
      3489      3488      3490      3491      3489      3488      3490      3492
      3490      3492      3495      3496      3490      3492      3495      3497
      3491      3490      3492      3493      3491      3490      3492      3494
      3491      3490      3492      3495      3492      3495      3497      3498
      3492      3495      3497      3499      3493      3492      3495      3496
      3493      3492      3495      3497      3494      3492      3495      3496
      3494      3492      3495      3497      3495      3497      3499      3500
      3495      3497      3499      3501      3495      3497      3499      3502
      3496      3495      3497      3498      3496      3495      3497      3499
      3497      3499      3502      3503      3497      3499      3502      3504
      3497      3499      3502      3505      3498      3497      3499      3500
      3498      3497      3499      3501      3498      3497      3499      3502
      3499      3502      3505      3506      3499      3502      3505      3507
      3499      3502      3505      3508      3500      3499      3502      3503
      3500      3499      3502      3504      3500      3499      3502      3505
      3501      3499      3502      3503      3501      3499      3502      3504
      3501      3499      3502      3505      3502      3505      3508      3509
      3502      3505      3508      3510      3502      3505      3508      3511
      3503      3502      3505      3506      3503      3502      3505      3507
      3503      3502      3505      3508      3504      3502      3505      3506
      3504      3502      3505      3507      3504      3502      3505      3508
      3505      3508      3511      3512      3505      3508      3511      3513
      3505      3508      3511      3514      3506      3505      3508      3509
      3506      3505      3508      3510      3506      3505      3508      3511
      3507      3505      3508      3509      3507      3505      3508      3510
      3507      3505      3508      3511      3509      3508      3511      3512
      3509      3508      3511      3513      3509      3508      3511      3514
      3510      3508      3511      3512      3510      3508      3511      3513
      3510      3508      3511      3514      3515      3518      3521      3522
      3515      3518      3521      3523      3515      3518      3521      3524
      3516      3515      3518      3519      3516      3515      3518      3520
      3516      3515      3518      3521      3517      3515      3518      3519
      3517      3515      3518      3520      3517      3515      3518      3521
      3518      3521      3524      3525      3518      3521      3524      3526
      3518      3521      3524      3527      3519      3518      3521      3522
      3519      3518      3521      3523      3519      3518      3521      3524
      3520      3518      3521      3522      3520      3518      3521      3523
      3520      3518      3521      3524      3521      3524      3527      3528
      3521      3524      3527      3529      3521      3524      3527      3530
      3522      3521      3524      3525      3522      3521      3524      3526
      3522      3521      3524      3527      3523      3521      3524      3525
      3523      3521      3524      3526      3523      3521      3524      3527
      3524      3527      3530      3531      3524      3527      3530      3532
      3524      3527      3530      3533      3525      3524      3527      3528
      3525      3524      3527      3529      3525      3524      3527      3530
      3526      3524      3527      3528      3526      3524      3527      3529
      3526      3524      3527      3530      3527      3530      3533      3534
      3527      3530      3533      3535      3527      3530      3533      3536
      3528      3527      3530      3531      3528      3527      3530      3532
      3528      3527      3530      3533      3529      3527      3530      3531
      3529      3527      3530      3532      3529      3527      3530      3533
      3530      3533      3536      3537      3530      3533      3536      3538
      3530      3533      3536      3539      3531      3530      3533      3534
      3531      3530      3533      3535      3531      3530      3533      3536
      3532      3530      3533      3534      3532      3530      3533      3535
      3532      3530      3533      3536      3533      3536      3539      3540
      3533      3536      3539      3541      3533      3536      3539      3542
      3534      3533      3536      3537      3534      3533      3536      3538
      3534      3533      3536      3539      3535      3533      3536      3537
      3535      3533      3536      3538      3535      3533      3536      3539
      3536      3539      3542      3543      3536      3539      3542      3544
      3536      3539      3542      3545      3537      3536      3539      3540
      3537      3536      3539      3541      3537      3536      3539      3542
      3538      3536      3539      3540      3538      3536      3539      3541
      3538      3536      3539      3542      3539      3542      3545      3546
      3539      3542      3545      3547      3539      3542      3545      3548
      3540      3539      3542      3543      3540      3539      3542      3544
      3540      3539      3542      3545      3541      3539      3542      3543
      3541      3539      3542      3544      3541      3539      3542      3545
      3542      3545      3548      3549      3542      3545      3548      3550
      3542      3545      3548      3551      3543      3542      3545      3546
      3543      3542      3545      3547      3543      3542      3545      3548
      3544      3542      3545      3546      3544      3542      3545      3547
      3544      3542      3545      3548      3545      3548      3551      3552
      3545      3548      3551      3553      3545      3548      3551      3554
      3546      3545      3548      3549      3546      3545      3548      3550
      3546      3545      3548      3551      3547      3545      3548      3549
      3547      3545      3548      3550      3547      3545      3548      3551
      3548      3551      3554      3555      3548      3551      3554      3556
      3548      3551      3554      3557      3549      3548      3551      3552
      3549      3548      3551      3553      3549      3548      3551      3554
      3550      3548      3551      3552      3550      3548      3551      3553
      3550      3548      3551      3554      3551      3554      3557      3558
      3551      3554      3557      3559      3551      3554      3557      3560
      3552      3551      3554      3555      3552      3551      3554      3556
      3552      3551      3554      3557      3553      3551      3554      3555
      3553      3551      3554      3556      3553      3551      3554      3557
      3554      3557      3560      3561      3554      3557      3560      3562
      3554      3557      3560      3563      3555      3554      3557      3558
      3555      3554      3557      3559      3555      3554      3557      3560
      3556      3554      3557      3558      3556      3554      3557      3559
      3556      3554      3557      3560      3558      3557      3560      3561
      3558      3557      3560      3562      3558      3557      3560      3563
      3559      3557      3560      3561      3559      3557      3560      3562
      3559      3557      3560      3563      3564      3577      3580      3581
      3564      3577      3580      3582      3564      3577      3580      3587
      3565      3564      3569      3570      3565      3564      3569      3571
      3565      3564      3569      3572      3565      3564      3573      3574
      3565      3564      3573      3575      3565      3564      3573      3576
      3565      3564      3577      3578      3565      3564      3577      3579
      3565      3564      3577      3580      3566      3565      3564      3569
      3566      3565      3564      3573      3566      3565      3564      3577
      3567      3565      3564      3569      3567      3565      3564      3573
      3567      3565      3564      3577      3568      3565      3564      3569
      3568      3565      3564      3573      3568      3565      3564      3577
      3569      3564      3573      3574      3569      3564      3573      3575
      3569      3564      3573      3576      3569      3564      3577      3578
      3569      3564      3577      3579      3569      3564      3577      3580
      3570      3569      3564      3573      3570      3569      3564      3577
      3571      3569      3564      3573      3571      3569      3564      3577
      3572      3569      3564      3573      3572      3569      3564      3577
      3573      3564      3577      3578      3573      3564      3577      3579
      3573      3564      3577      3580      3574      3573      3564      3577
      3575      3573      3564      3577      3576      3573      3564      3577
      3577      3580      3587      3583      3578      3577      3580      3581
      3578      3577      3580      3582      3578      3577      3580      3587
      3579      3577      3580      3581      3579      3577      3580      3582
      3579      3577      3580      3587      3580      3587      3583      3584
      3580      3587      3583      3585      3580      3587      3583      3586
      3581      3580      3587      3583      3582      3580      3587      3583
      3583      3586      3588      3589      3583      3586      3588      3590
      3583      3586      3588      3593      3584      3583      3586      3588
      3585      3583      3586      3588      3586      3588      3593      3591
      3586      3588      3593      3594      3586      3588      3593      3595
      3587      3583      3586      3588      3588      3593      3591      3592
      3588      3593      3591      3643      3588      3593      3595      3596
      3588      3593      3595      3597      3588      3593      3595      3599
      3589      3588      3593      3591      3589      3588      3593      3594
      3589      3588      3593      3595      3590      3588      3593      3591
      3590      3588      3593      3594      3590      3588      3593      3595
      3591      3593      3595      3596      3591      3593      3595      3597
      3591      3593      3595      3599      3591      3643      3645      3646
      3591      3643      3645      3647      3591      3643      3645      3648
      3592      3591      3593      3594      3592      3591      3593      3595
      3592      3591      3643      3644      3592      3591      3643      3645
      3593      3591      3643      3644      3593      3591      3643      3645
      3593      3595      3597      3598      3593      3595      3599      3600
      3593      3595      3599      3601      3594      3593      3591      3643
      3594      3593      3595      3596      3594      3593      3595      3597
      3594      3593      3595      3599      3595      3593      3591      3643
      3595      3599      3601      3602      3595      3599      3601      3603
      3596      3595      3597      3598      3596      3595      3599      3600
      3596      3595      3599      3601      3597      3595      3599      3600
      3597      3595      3599      3601      3598      3597      3595      3599
      3599      3601      3603      3604      3599      3601      3603      3605
      3599      3601      3603      3606      3600      3599      3601      3602
      3600      3599      3601      3603      3601      3603      3606      3607
      3601      3603      3606      3608      3601      3603      3606      3609
      3602      3601      3603      3604      3602      3601      3603      3605
      3602      3601      3603      3606      3603      3606      3609      3610
      3603      3606      3609      3611      3603      3606      3609      3612
      3604      3603      3606      3607      3604      3603      3606      3608
      3604      3603      3606      3609      3605      3603      3606      3607
      3605      3603      3606      3608      3605      3603      3606      3609
      3606      3609      3612      3613      3606      3609      3612      3614
      3606      3609      3612      3615      3607      3606      3609      3610
      3607      3606      3609      3611      3607      3606      3609      3612
      3608      3606      3609      3610      3608      3606      3609      3611
      3608      3606      3609      3612      3609      3612      3615      3616
      3609      3612      3615      3617      3609      3612      3615      3618
      3610      3609      3612      3613      3610      3609      3612      3614
      3610      3609      3612      3615      3611      3609      3612      3613
      3611      3609      3612      3614      3611      3609      3612      3615
      3612      3615      3618      3619      3612      3615      3618      3620
      3612      3615      3618      3621      3613      3612      3615      3616
      3613      3612      3615      3617      3613      3612      3615      3618
      3614      3612      3615      3616      3614      3612      3615      3617
      3614      3612      3615      3618      3615      3618      3621      3622
      3615      3618      3621      3623      3615      3618      3621      3624
      3616      3615      3618      3619      3616      3615      3618      3620
      3616      3615      3618      3621      3617      3615      3618      3619
      3617      3615      3618      3620      3617      3615      3618      3621
      3618      3621      3624      3625      3618      3621      3624      3626
      3618      3621      3624      3627      3619      3618      3621      3622
      3619      3618      3621      3623      3619      3618      3621      3624
      3620      3618      3621      3622      3620      3618      3621      3623
      3620      3618      3621      3624      3621      3624      3627      3628
      3621      3624      3627      3629      3621      3624      3627      3630
      3622      3621      3624      3625      3622      3621      3624      3626
      3622      3621      3624      3627      3623      3621      3624      3625
      3623      3621      3624      3626      3623      3621      3624      3627
      3624      3627      3630      3631      3624      3627      3630      3632
      3624      3627      3630      3633      3625      3624      3627      3628
      3625      3624      3627      3629      3625      3624      3627      3630
      3626      3624      3627      3628      3626      3624      3627      3629
      3626      3624      3627      3630      3627      3630      3633      3634
      3627      3630      3633      3635      3627      3630      3633      3636
      3628      3627      3630      3631      3628      3627      3630      3632
      3628      3627      3630      3633      3629      3627      3630      3631
      3629      3627      3630      3632      3629      3627      3630      3633
      3630      3633      3636      3637      3630      3633      3636      3638
      3630      3633      3636      3639      3631      3630      3633      3634
      3631      3630      3633      3635      3631      3630      3633      3636
      3632      3630      3633      3634      3632      3630      3633      3635
      3632      3630      3633      3636      3633      3636      3639      3640
      3633      3636      3639      3641      3633      3636      3639      3642
      3634      3633      3636      3637      3634      3633      3636      3638
      3634      3633      3636      3639      3635      3633      3636      3637
      3635      3633      3636      3638      3635      3633      3636      3639
      3637      3636      3639      3640      3637      3636      3639      3641
      3637      3636      3639      3642      3638      3636      3639      3640
      3638      3636      3639      3641      3638      3636      3639      3642
      3643      3645      3648      3649      3643      3645      3648      3650
      3643      3645      3648      3651      3644      3643      3645      3646
      3644      3643      3645      3647      3644      3643      3645      3648
      3645      3648      3651      3652      3645      3648      3651      3653
      3645      3648      3651      3654      3646      3645      3648      3649
      3646      3645      3648      3650      3646      3645      3648      3651
      3647      3645      3648      3649      3647      3645      3648      3650
      3647      3645      3648      3651      3648      3651      3654      3655
      3648      3651      3654      3656      3648      3651      3654      3657
      3649      3648      3651      3652      3649      3648      3651      3653
      3649      3648      3651      3654      3650      3648      3651      3652
      3650      3648      3651      3653      3650      3648      3651      3654
      3651      3654      3657      3658      3651      3654      3657      3659
      3651      3654      3657      3660      3652      3651      3654      3655
      3652      3651      3654      3656      3652      3651      3654      3657
      3653      3651      3654      3655      3653      3651      3654      3656
      3653      3651      3654      3657      3654      3657      3660      3661
      3654      3657      3660      3662      3654      3657      3660      3663
      3655      3654      3657      3658      3655      3654      3657      3659
      3655      3654      3657      3660      3656      3654      3657      3658
      3656      3654      3657      3659      3656      3654      3657      3660
      3657      3660      3663      3664      3657      3660      3663      3665
      3657      3660      3663      3666      3658      3657      3660      3661
      3658      3657      3660      3662      3658      3657      3660      3663
      3659      3657      3660      3661      3659      3657      3660      3662
      3659      3657      3660      3663      3660      3663      3666      3667
      3660      3663      3666      3668      3661      3660      3663      3664
      3661      3660      3663      3665      3661      3660      3663      3666
      3662      3660      3663      3664      3662      3660      3663      3665
      3662      3660      3663      3666      3663      3666      3668      3669
      3663      3666      3668      3670      3664      3663      3666      3667
      3664      3663      3666      3668      3665      3663      3666      3667
      3665      3663      3666      3668      3666      3668      3670      3671
      3666      3668      3670      3672      3666      3668      3670      3673
      3667      3666      3668      3669      3667      3666      3668      3670
      3668      3670      3673      3674      3668      3670      3673      3675
      3668      3670      3673      3676      3669      3668      3670      3671
      3669      3668      3670      3672      3669      3668      3670      3673
      3670      3673      3676      3677      3670      3673      3676      3678
      3670      3673      3676      3679      3671      3670      3673      3674
      3671      3670      3673      3675      3671      3670      3673      3676
      3672      3670      3673      3674      3672      3670      3673      3675
      3672      3670      3673      3676      3673      3676      3679      3680
      3673      3676      3679      3681      3673      3676      3679      3682
      3674      3673      3676      3677      3674      3673      3676      3678
      3674      3673      3676      3679      3675      3673      3676      3677
      3675      3673      3676      3678      3675      3673      3676      3679
      3676      3679      3682      3683      3676      3679      3682      3684
      3676      3679      3682      3685      3677      3676      3679      3680
      3677      3676      3679      3681      3677      3676      3679      3682
      3678      3676      3679      3680      3678      3676      3679      3681
      3678      3676      3679      3682      3679      3682      3685      3686
      3679      3682      3685      3687      3679      3682      3685      3688
      3680      3679      3682      3683      3680      3679      3682      3684
      3680      3679      3682      3685      3681      3679      3682      3683
      3681      3679      3682      3684      3681      3679      3682      3685
      3682      3685      3688      3689      3682      3685      3688      3690
      3682      3685      3688      3691      3683      3682      3685      3686
      3683      3682      3685      3687      3683      3682      3685      3688
      3684      3682      3685      3686      3684      3682      3685      3687
      3684      3682      3685      3688      3685      3688      3691      3692
      3685      3688      3691      3693      3685      3688      3691      3694
      3686      3685      3688      3689      3686      3685      3688      3690
      3686      3685      3688      3691      3687      3685      3688      3689
      3687      3685      3688      3690      3687      3685      3688      3691
      3689      3688      3691      3692      3689      3688      3691      3693
      3689      3688      3691      3694      3690      3688      3691      3692
      3690      3688      3691      3693      3690      3688      3691      3694
      3695      3708      3711      3712      3695      3708      3711      3713
      3695      3708      3711      3718      3696      3695      3700      3701
      3696      3695      3700      3702      3696      3695      3700      3703
      3696      3695      3704      3705      3696      3695      3704      3706
      3696      3695      3704      3707      3696      3695      3708      3709
      3696      3695      3708      3710      3696      3695      3708      3711
      3697      3696      3695      3700      3697      3696      3695      3704
      3697      3696      3695      3708      3698      3696      3695      3700
      3698      3696      3695      3704      3698      3696      3695      3708
      3699      3696      3695      3700      3699      3696      3695      3704
      3699      3696      3695      3708      3700      3695      3704      3705
      3700      3695      3704      3706      3700      3695      3704      3707
      3700      3695      3708      3709      3700      3695      3708      3710
      3700      3695      3708      3711      3701      3700      3695      3704
      3701      3700      3695      3708      3702      3700      3695      3704
      3702      3700      3695      3708      3703      3700      3695      3704
      3703      3700      3695      3708      3704      3695      3708      3709
      3704      3695      3708      3710      3704      3695      3708      3711
      3705      3704      3695      3708      3706      3704      3695      3708
      3707      3704      3695      3708      3708      3711      3718      3714
      3709      3708      3711      3712      3709      3708      3711      3713
      3709      3708      3711      3718      3710      3708      3711      3712
      3710      3708      3711      3713      3710      3708      3711      3718
      3711      3718      3714      3715      3711      3718      3714      3716
      3711      3718      3714      3717      3712      3711      3718      3714
      3713      3711      3718      3714      3714      3717      3719      3720
      3714      3717      3719      3721      3714      3717      3719      3724
      3715      3714      3717      3719      3716      3714      3717      3719
      3717      3719      3724      3722      3717      3719      3724      3725
      3717      3719      3724      3726      3718      3714      3717      3719
      3719      3724      3722      3723      3719      3724      3722      3774
      3719      3724      3726      3727      3719      3724      3726      3728
      3719      3724      3726      3730      3720      3719      3724      3722
      3720      3719      3724      3725      3720      3719      3724      3726
      3721      3719      3724      3722      3721      3719      3724      3725
      3721      3719      3724      3726      3722      3724      3726      3727
      3722      3724      3726      3728      3722      3724      3726      3730
      3722      3774      3776      3777      3722      3774      3776      3778
      3722      3774      3776      3779      3723      3722      3724      3725
      3723      3722      3724      3726      3723      3722      3774      3775
      3723      3722      3774      3776      3724      3722      3774      3775
      3724      3722      3774      3776      3724      3726      3728      3729
      3724      3726      3730      3731      3724      3726      3730      3732
      3725      3724      3722      3774      3725      3724      3726      3727
      3725      3724      3726      3728      3725      3724      3726      3730
      3726      3724      3722      3774      3726      3730      3732      3733
      3726      3730      3732      3734      3727      3726      3728      3729
      3727      3726      3730      3731      3727      3726      3730      3732
      3728      3726      3730      3731      3728      3726      3730      3732
      3729      3728      3726      3730      3730      3732      3734      3735
      3730      3732      3734      3736      3730      3732      3734      3737
      3731      3730      3732      3733      3731      3730      3732      3734
      3732      3734      3737      3738      3732      3734      3737      3739
      3732      3734      3737      3740      3733      3732      3734      3735
      3733      3732      3734      3736      3733      3732      3734      3737
      3734      3737      3740      3741      3734      3737      3740      3742
      3734      3737      3740      3743      3735      3734      3737      3738
      3735      3734      3737      3739      3735      3734      3737      3740
      3736      3734      3737      3738      3736      3734      3737      3739
      3736      3734      3737      3740      3737      3740      3743      3744
      3737      3740      3743      3745      3737      3740      3743      3746
      3738      3737      3740      3741      3738      3737      3740      3742
      3738      3737      3740      3743      3739      3737      3740      3741
      3739      3737      3740      3742      3739      3737      3740      3743
      3740      3743      3746      3747      3740      3743      3746      3748
      3740      3743      3746      3749      3741      3740      3743      3744
      3741      3740      3743      3745      3741      3740      3743      3746
      3742      3740      3743      3744      3742      3740      3743      3745
      3742      3740      3743      3746      3743      3746      3749      3750
      3743      3746      3749      3751      3743      3746      3749      3752
      3744      3743      3746      3747      3744      3743      3746      3748
      3744      3743      3746      3749      3745      3743      3746      3747
      3745      3743      3746      3748      3745      3743      3746      3749
      3746      3749      3752      3753      3746      3749      3752      3754
      3746      3749      3752      3755      3747      3746      3749      3750
      3747      3746      3749      3751      3747      3746      3749      3752
      3748      3746      3749      3750      3748      3746      3749      3751
      3748      3746      3749      3752      3749      3752      3755      3756
      3749      3752      3755      3757      3749      3752      3755      3758
      3750      3749      3752      3753      3750      3749      3752      3754
      3750      3749      3752      3755      3751      3749      3752      3753
      3751      3749      3752      3754      3751      3749      3752      3755
      3752      3755      3758      3759      3752      3755      3758      3760
      3752      3755      3758      3761      3753      3752      3755      3756
      3753      3752      3755      3757      3753      3752      3755      3758
      3754      3752      3755      3756      3754      3752      3755      3757
      3754      3752      3755      3758      3755      3758      3761      3762
      3755      3758      3761      3763      3755      3758      3761      3764
      3756      3755      3758      3759      3756      3755      3758      3760
      3756      3755      3758      3761      3757      3755      3758      3759
      3757      3755      3758      3760      3757      3755      3758      3761
      3758      3761      3764      3765      3758      3761      3764      3766
      3758      3761      3764      3767      3759      3758      3761      3762
      3759      3758      3761      3763      3759      3758      3761      3764
      3760      3758      3761      3762      3760      3758      3761      3763
      3760      3758      3761      3764      3761      3764      3767      3768
      3761      3764      3767      3769      3761      3764      3767      3770
      3762      3761      3764      3765      3762      3761      3764      3766
      3762      3761      3764      3767      3763      3761      3764      3765
      3763      3761      3764      3766      3763      3761      3764      3767
      3764      3767      3770      3771      3764      3767      3770      3772
      3764      3767      3770      3773      3765      3764      3767      3768
      3765      3764      3767      3769      3765      3764      3767      3770
      3766      3764      3767      3768      3766      3764      3767      3769
      3766      3764      3767      3770      3768      3767      3770      3771
      3768      3767      3770      3772      3768      3767      3770      3773
      3769      3767      3770      3771      3769      3767      3770      3772
      3769      3767      3770      3773      3774      3776      3779      3780
      3774      3776      3779      3781      3774      3776      3779      3782
      3775      3774      3776      3777      3775      3774      3776      3778
      3775      3774      3776      3779      3776      3779      3782      3783
      3776      3779      3782      3784      3776      3779      3782      3785
      3777      3776      3779      3780      3777      3776      3779      3781
      3777      3776      3779      3782      3778      3776      3779      3780
      3778      3776      3779      3781      3778      3776      3779      3782
      3779      3782      3785      3786      3779      3782      3785      3787
      3779      3782      3785      3788      3780      3779      3782      3783
      3780      3779      3782      3784      3780      3779      3782      3785
      3781      3779      3782      3783      3781      3779      3782      3784
      3781      3779      3782      3785      3782      3785      3788      3789
      3782      3785      3788      3790      3782      3785      3788      3791
      3783      3782      3785      3786      3783      3782      3785      3787
      3783      3782      3785      3788      3784      3782      3785      3786
      3784      3782      3785      3787      3784      3782      3785      3788
      3785      3788      3791      3792      3785      3788      3791      3793
      3785      3788      3791      3794      3786      3785      3788      3789
      3786      3785      3788      3790      3786      3785      3788      3791
      3787      3785      3788      3789      3787      3785      3788      3790
      3787      3785      3788      3791      3788      3791      3794      3795
      3788      3791      3794      3796      3788      3791      3794      3797
      3789      3788      3791      3792      3789      3788      3791      3793
      3789      3788      3791      3794      3790      3788      3791      3792
      3790      3788      3791      3793      3790      3788      3791      3794
      3791      3794      3797      3798      3791      3794      3797      3799
      3792      3791      3794      3795      3792      3791      3794      3796
      3792      3791      3794      3797      3793      3791      3794      3795
      3793      3791      3794      3796      3793      3791      3794      3797
      3794      3797      3799      3800      3794      3797      3799      3801
      3795      3794      3797      3798      3795      3794      3797      3799
      3796      3794      3797      3798      3796      3794      3797      3799
      3797      3799      3801      3802      3797      3799      3801      3803
      3797      3799      3801      3804      3798      3797      3799      3800
      3798      3797      3799      3801      3799      3801      3804      3805
      3799      3801      3804      3806      3799      3801      3804      3807
      3800      3799      3801      3802      3800      3799      3801      3803
      3800      3799      3801      3804      3801      3804      3807      3808
      3801      3804      3807      3809      3801      3804      3807      3810
      3802      3801      3804      3805      3802      3801      3804      3806
      3802      3801      3804      3807      3803      3801      3804      3805
      3803      3801      3804      3806      3803      3801      3804      3807
      3804      3807      3810      3811      3804      3807      3810      3812
      3804      3807      3810      3813      3805      3804      3807      3808
      3805      3804      3807      3809      3805      3804      3807      3810
      3806      3804      3807      3808      3806      3804      3807      3809
      3806      3804      3807      3810      3807      3810      3813      3814
      3807      3810      3813      3815      3807      3810      3813      3816
      3808      3807      3810      3811      3808      3807      3810      3812
      3808      3807      3810      3813      3809      3807      3810      3811
      3809      3807      3810      3812      3809      3807      3810      3813
      3810      3813      3816      3817      3810      3813      3816      3818
      3810      3813      3816      3819      3811      3810      3813      3814
      3811      3810      3813      3815      3811      3810      3813      3816
      3812      3810      3813      3814      3812      3810      3813      3815
      3812      3810      3813      3816      3813      3816      3819      3820
      3813      3816      3819      3821      3813      3816      3819      3822
      3814      3813      3816      3817      3814      3813      3816      3818
      3814      3813      3816      3819      3815      3813      3816      3817
      3815      3813      3816      3818      3815      3813      3816      3819
      3816      3819      3822      3823      3816      3819      3822      3824
      3816      3819      3822      3825      3817      3816      3819      3820
      3817      3816      3819      3821      3817      3816      3819      3822
      3818      3816      3819      3820      3818      3816      3819      3821
      3818      3816      3819      3822      3820      3819      3822      3823
      3820      3819      3822      3824      3820      3819      3822      3825
      3821      3819      3822      3823      3821      3819      3822      3824
      3821      3819      3822      3825      3826      3839      3842      3843
      3826      3839      3842      3844      3826      3839      3842      3849
      3827      3826      3831      3832      3827      3826      3831      3833
      3827      3826      3831      3834      3827      3826      3835      3836
      3827      3826      3835      3837      3827      3826      3835      3838
      3827      3826      3839      3840      3827      3826      3839      3841
      3827      3826      3839      3842      3828      3827      3826      3831
      3828      3827      3826      3835      3828      3827      3826      3839
      3829      3827      3826      3831      3829      3827      3826      3835
      3829      3827      3826      3839      3830      3827      3826      3831
      3830      3827      3826      3835      3830      3827      3826      3839
      3831      3826      3835      3836      3831      3826      3835      3837
      3831      3826      3835      3838      3831      3826      3839      3840
      3831      3826      3839      3841      3831      3826      3839      3842
      3832      3831      3826      3835      3832      3831      3826      3839
      3833      3831      3826      3835      3833      3831      3826      3839
      3834      3831      3826      3835      3834      3831      3826      3839
      3835      3826      3839      3840      3835      3826      3839      3841
      3835      3826      3839      3842      3836      3835      3826      3839
      3837      3835      3826      3839      3838      3835      3826      3839
      3839      3842      3849      3845      3840      3839      3842      3843
      3840      3839      3842      3844      3840      3839      3842      3849
      3841      3839      3842      3843      3841      3839      3842      3844
      3841      3839      3842      3849      3842      3849      3845      3846
      3842      3849      3845      3847      3842      3849      3845      3848
      3843      3842      3849      3845      3844      3842      3849      3845
      3845      3848      3850      3851      3845      3848      3850      3852
      3845      3848      3850      3855      3846      3845      3848      3850
      3847      3845      3848      3850      3848      3850      3855      3853
      3848      3850      3855      3856      3848      3850      3855      3857
      3849      3845      3848      3850      3850      3855      3853      3854
      3850      3855      3853      3905      3850      3855      3857      3858
      3850      3855      3857      3859      3850      3855      3857      3861
      3851      3850      3855      3853      3851      3850      3855      3856
      3851      3850      3855      3857      3852      3850      3855      3853
      3852      3850      3855      3856      3852      3850      3855      3857
      3853      3855      3857      3858      3853      3855      3857      3859
      3853      3855      3857      3861      3853      3905      3907      3908
      3853      3905      3907      3909      3853      3905      3907      3910
      3854      3853      3855      3856      3854      3853      3855      3857
      3854      3853      3905      3906      3854      3853      3905      3907
      3855      3853      3905      3906      3855      3853      3905      3907
      3855      3857      3859      3860      3855      3857      3861      3862
      3855      3857      3861      3863      3856      3855      3853      3905
      3856      3855      3857      3858      3856      3855      3857      3859
      3856      3855      3857      3861      3857      3855      3853      3905
      3857      3861      3863      3864      3857      3861      3863      3865
      3858      3857      3859      3860      3858      3857      3861      3862
      3858      3857      3861      3863      3859      3857      3861      3862
      3859      3857      3861      3863      3860      3859      3857      3861
      3861      3863      3865      3866      3861      3863      3865      3867
      3861      3863      3865      3868      3862      3861      3863      3864
      3862      3861      3863      3865      3863      3865      3868      3869
      3863      3865      3868      3870      3863      3865      3868      3871
      3864      3863      3865      3866      3864      3863      3865      3867
      3864      3863      3865      3868      3865      3868      3871      3872
      3865      3868      3871      3873      3865      3868      3871      3874
      3866      3865      3868      3869      3866      3865      3868      3870
      3866      3865      3868      3871      3867      3865      3868      3869
      3867      3865      3868      3870      3867      3865      3868      3871
      3868      3871      3874      3875      3868      3871      3874      3876
      3868      3871      3874      3877      3869      3868      3871      3872
      3869      3868      3871      3873      3869      3868      3871      3874
      3870      3868      3871      3872      3870      3868      3871      3873
      3870      3868      3871      3874      3871      3874      3877      3878
      3871      3874      3877      3879      3871      3874      3877      3880
      3872      3871      3874      3875      3872      3871      3874      3876
      3872      3871      3874      3877      3873      3871      3874      3875
      3873      3871      3874      3876      3873      3871      3874      3877
      3874      3877      3880      3881      3874      3877      3880      3882
      3874      3877      3880      3883      3875      3874      3877      3878
      3875      3874      3877      3879      3875      3874      3877      3880
      3876      3874      3877      3878      3876      3874      3877      3879
      3876      3874      3877      3880      3877      3880      3883      3884
      3877      3880      3883      3885      3877      3880      3883      3886
      3878      3877      3880      3881      3878      3877      3880      3882
      3878      3877      3880      3883      3879      3877      3880      3881
      3879      3877      3880      3882      3879      3877      3880      3883
      3880      3883      3886      3887      3880      3883      3886      3888
      3880      3883      3886      3889      3881      3880      3883      3884
      3881      3880      3883      3885      3881      3880      3883      3886
      3882      3880      3883      3884      3882      3880      3883      3885
      3882      3880      3883      3886      3883      3886      3889      3890
      3883      3886      3889      3891      3883      3886      3889      3892
      3884      3883      3886      3887      3884      3883      3886      3888
      3884      3883      3886      3889      3885      3883      3886      3887
      3885      3883      3886      3888      3885      3883      3886      3889
      3886      3889      3892      3893      3886      3889      3892      3894
      3886      3889      3892      3895      3887      3886      3889      3890
      3887      3886      3889      3891      3887      3886      3889      3892
      3888      3886      3889      3890      3888      3886      3889      3891
      3888      3886      3889      3892      3889      3892      3895      3896
      3889      3892      3895      3897      3889      3892      3895      3898
      3890      3889      3892      3893      3890      3889      3892      3894
      3890      3889      3892      3895      3891      3889      3892      3893
      3891      3889      3892      3894      3891      3889      3892      3895
      3892      3895      3898      3899      3892      3895      3898      3900
      3892      3895      3898      3901      3893      3892      3895      3896
      3893      3892      3895      3897      3893      3892      3895      3898
      3894      3892      3895      3896      3894      3892      3895      3897
      3894      3892      3895      3898      3895      3898      3901      3902
      3895      3898      3901      3903      3895      3898      3901      3904
      3896      3895      3898      3899      3896      3895      3898      3900
      3896      3895      3898      3901      3897      3895      3898      3899
      3897      3895      3898      3900      3897      3895      3898      3901
      3899      3898      3901      3902      3899      3898      3901      3903
      3899      3898      3901      3904      3900      3898      3901      3902
      3900      3898      3901      3903      3900      3898      3901      3904
      3905      3907      3910      3911      3905      3907      3910      3912
      3905      3907      3910      3913      3906      3905      3907      3908
      3906      3905      3907      3909      3906      3905      3907      3910
      3907      3910      3913      3914      3907      3910      3913      3915
      3907      3910      3913      3916      3908      3907      3910      3911
      3908      3907      3910      3912      3908      3907      3910      3913
      3909      3907      3910      3911      3909      3907      3910      3912
      3909      3907      3910      3913      3910      3913      3916      3917
      3910      3913      3916      3918      3910      3913      3916      3919
      3911      3910      3913      3914      3911      3910      3913      3915
      3911      3910      3913      3916      3912      3910      3913      3914
      3912      3910      3913      3915      3912      3910      3913      3916
      3913      3916      3919      3920      3913      3916      3919      3921
      3913      3916      3919      3922      3914      3913      3916      3917
      3914      3913      3916      3918      3914      3913      3916      3919
      3915      3913      3916      3917      3915      3913      3916      3918
      3915      3913      3916      3919      3916      3919      3922      3923
      3916      3919      3922      3924      3916      3919      3922      3925
      3917      3916      3919      3920      3917      3916      3919      3921
      3917      3916      3919      3922      3918      3916      3919      3920
      3918      3916      3919      3921      3918      3916      3919      3922
      3919      3922      3925      3926      3919      3922      3925      3927
      3919      3922      3925      3928      3920      3919      3922      3923
      3920      3919      3922      3924      3920      3919      3922      3925
      3921      3919      3922      3923      3921      3919      3922      3924
      3921      3919      3922      3925      3922      3925      3928      3929
      3922      3925      3928      3930      3923      3922      3925      3926
      3923      3922      3925      3927      3923      3922      3925      3928
      3924      3922      3925      3926      3924      3922      3925      3927
      3924      3922      3925      3928      3925      3928      3930      3931
      3925      3928      3930      3932      3926      3925      3928      3929
      3926      3925      3928      3930      3927      3925      3928      3929
      3927      3925      3928      3930      3928      3930      3932      3933
      3928      3930      3932      3934      3928      3930      3932      3935
      3929      3928      3930      3931      3929      3928      3930      3932
      3930      3932      3935      3936      3930      3932      3935      3937
      3930      3932      3935      3938      3931      3930      3932      3933
      3931      3930      3932      3934      3931      3930      3932      3935
      3932      3935      3938      3939      3932      3935      3938      3940
      3932      3935      3938      3941      3933      3932      3935      3936
      3933      3932      3935      3937      3933      3932      3935      3938
      3934      3932      3935      3936      3934      3932      3935      3937
      3934      3932      3935      3938      3935      3938      3941      3942
      3935      3938      3941      3943      3935      3938      3941      3944
      3936      3935      3938      3939      3936      3935      3938      3940
      3936      3935      3938      3941      3937      3935      3938      3939
      3937      3935      3938      3940      3937      3935      3938      3941
      3938      3941      3944      3945      3938      3941      3944      3946
      3938      3941      3944      3947      3939      3938      3941      3942
      3939      3938      3941      3943      3939      3938      3941      3944
      3940      3938      3941      3942      3940      3938      3941      3943
      3940      3938      3941      3944      3941      3944      3947      3948
      3941      3944      3947      3949      3941      3944      3947      3950
      3942      3941      3944      3945      3942      3941      3944      3946
      3942      3941      3944      3947      3943      3941      3944      3945
      3943      3941      3944      3946      3943      3941      3944      3947
      3944      3947      3950      3951      3944      3947      3950      3952
      3944      3947      3950      3953      3945      3944      3947      3948
      3945      3944      3947      3949      3945      3944      3947      3950
      3946      3944      3947      3948      3946      3944      3947      3949
      3946      3944      3947      3950      3947      3950      3953      3954
      3947      3950      3953      3955      3947      3950      3953      3956
      3948      3947      3950      3951      3948      3947      3950      3952
      3948      3947      3950      3953      3949      3947      3950      3951
      3949      3947      3950      3952      3949      3947      3950      3953
      3951      3950      3953      3954      3951      3950      3953      3955
      3951      3950      3953      3956      3952      3950      3953      3954
      3952      3950      3953      3955      3952      3950      3953      3956
      3957      3961      3964      3965      3957      3961      3964      3995
      3957      4003      4000      3995      3957      4003      4000      4001
      3957      4003      4000      4002      3958      3957      3959      3960
      3958      3957      3961      3962      3958      3957      3961      3963
      3958      3957      3961      3964      3958      3957      4003      4000
      3958      3957      4003      4004      3958      3957      4003      4005
      3959      3957      3961      3962      3959      3957      3961      3963
      3959      3957      3961      3964      3959      3957      4003      4000
      3959      3957      4003      4004      3959      3957      4003      4005
      3960      3959      3957      3961      3960      3959      3957      4003
      3961      3957      4003      4000      3961      3957      4003      4004
      3961      3957      4003      4005      3961      3964      3965      3966
      3961      3964      3965      3967      3961      3964      3995      3993
      3961      3964      3995      3996      3961      3964      3995      4000
      3962      3961      3957      4003      3962      3961      3964      3965
      3962      3961      3964      3995      3963      3961      3957      4003
      3963      3961      3964      3965      3963      3961      3964      3995
      3964      3961      3957      4003      3964      3965      3967      3968
      3964      3965      3967      3969      3964      3965      3967      3970
      3964      3995      3993      3970      3964      3995      3993      3990
      3964      3995      3993      3994      3964      3995      3996      3997
      3964      3995      3996      3998      3964      3995      3996      3999
      3964      3995      4000      4001      3964      3995      4000      4002
      3964      3995      4000      4003      3965      3964      3995      3993
      3965      3964      3995      3996      3965      3964      3995      4000
      3965      3967      3970      3971      3965      3967      3970      3972
      3965      3967      3970      3993      3966      3965      3964      3995
      3966      3965      3967      3968      3966      3965      3967      3969
      3966      3965      3967      3970      3967      3965      3964      3995
      3967      3970      3972      3973      3967      3970      3972      3974
      3967      3970      3972      3982      3967      3970      3993      3990
      3967      3970      3993      3994      3967      3970      3993      3995
      3968      3967      3970      3971      3968      3967      3970      3972
      3968      3967      3970      3993      3969      3967      3970      3971
      3969      3967      3970      3972      3969      3967      3970      3993
      3970      3972      3974      3975      3970      3972      3974      3976
      3970      3972      3974      3977      3970      3972      3982      3980
      3970      3972      3982      3983      3970      3972      3982      3987
      3970      3993      3990      3987      3970      3993      3990      3991
      3970      3993      3990      3992      3970      3993      3995      3996
      3970      3993      3995      4000      3971      3970      3972      3973
      3971      3970      3972      3974      3971      3970      3972      3982
      3971      3970      3993      3990      3971      3970      3993      3994
      3971      3970      3993      3995      3972      3970      3993      3990
      3972      3970      3993      3994      3972      3970      3993      3995
      3972      3974      3977      3978      3972      3974      3977      3979
      3972      3974      3977      3980      3972      3982      3980      3977
      3972      3982      3980      3981      3972      3982      3980      4006
      3972      3982      3983      3984      3972      3982      3983      3985
      3972      3982      3983      3986      3972      3982      3987      3988
      3972      3982      3987      3989      3972      3982      3987      3990
      3973      3972      3970      3993      3973      3972      3974      3975
      3973      3972      3974      3976      3973      3972      3974      3977
      3973      3972      3982      3980      3973      3972      3982      3983
      3973      3972      3982      3987      3974      3972      3970      3993
      3974      3972      3982      3980      3974      3972      3982      3983
      3974      3972      3982      3987      3974      3977      3980      3981
      3974      3977      3980      3982      3974      3977      3980      4006
      3975      3974      3972      3982      3975      3974      3977      3978
      3975      3974      3977      3979      3975      3974      3977      3980
      3976      3974      3972      3982      3976      3974      3977      3978
      3976      3974      3977      3979      3976      3974      3977      3980
      3977      3974      3972      3982      3977      3980      3982      3983
      3977      3980      3982      3987      3977      3980      4006      4007
      3977      3980      4006      4008      3977      3980      4006      4012
      3978      3977      3980      3981      3978      3977      3980      3982
      3978      3977      3980      4006      3979      3977      3980      3981
      3979      3977      3980      3982      3979      3977      3980      4006
      3980      3982      3983      3984      3980      3982      3983      3985
      3980      3982      3983      3986      3980      3982      3987      3988
      3980      3982      3987      3989      3980      3982      3987      3990
      3980      4006      4008      4009      3980      4006      4008      4010
      3980      4006      4008      4011      3980      4006      4012      4013
      3980      4006      4012      4014      3980      4006      4012      4015
      3981      3980      3982      3983      3981      3980      3982      3987
      3981      3980      4006      4007      3981      3980      4006      4008
      3981      3980      4006      4012      3982      3972      3970      3993
      3982      3980      4006      4007      3982      3980      4006      4008
      3982      3980      4006      4012      3982      3987      3990      3991
      3982      3987      3990      3992      3982      3987      3990      3993
      3983      3982      3980      4006      3983      3982      3987      3988
      3983      3982      3987      3989      3983      3982      3987      3990
      3984      3983      3982      3987      3985      3983      3982      3987
      3986      3983      3982      3987      3987      3982      3980      4006
      3987      3990      3993      3994      3987      3990      3993      3995
      3988      3987      3990      3991      3988      3987      3990      3992
      3988      3987      3990      3993      3989      3987      3990      3991
      3989      3987      3990      3992      3989      3987      3990      3993
      3990      3993      3995      3996      3990      3993      3995      4000
      3991      3990      3993      3994      3991      3990      3993      3995
      3992      3990      3993      3994      3992      3990      3993      3995
      3993      3995      3996      3997      3993      3995      3996      3998
      3993      3995      3996      3999      3993      3995      4000      4001
      3993      3995      4000      4002      3993      3995      4000      4003
      3994      3993      3995      3996      3994      3993      3995      4000
      3995      4000      4003      4004      3995      4000      4003      4005
      3996      3995      4000      4001      3996      3995      4000      4002
      3996      3995      4000      4003      3997      3996      3995      4000
      3998      3996      3995      4000      3999      3996      3995      4000
      4001      4000      4003      4004      4001      4000      4003      4005
      4002      4000      4003      4004      4002      4000      4003      4005
      4006      4012      4015      4016      4006      4012      4015      4017
      4006      4012      4015      4018      4007      4006      4008      4009
      4007      4006      4008      4010      4007      4006      4008      4011
      4007      4006      4012      4013      4007      4006      4012      4014
      4007      4006      4012      4015      4008      4006      4012      4013
      4008      4006      4012      4014      4008      4006      4012      4015
      4009      4008      4006      4012      4010      4008      4006      4012
      4011      4008      4006      4012      4012      4015      4018      4019
      4012      4015      4018      4020      4012      4015      4018      4021
      4013      4012      4015      4016      4013      4012      4015      4017
      4013      4012      4015      4018      4014      4012      4015      4016
      4014      4012      4015      4017      4014      4012      4015      4018
      4015      4018      4021      4022      4015      4018      4021      4023
      4015      4018      4021      4027      4016      4015      4018      4019
      4016      4015      4018      4020      4016      4015      4018      4021
      4017      4015      4018      4019      4017      4015      4018      4020
      4017      4015      4018      4021      4018      4021      4023      4024
      4018      4021      4023      4025      4018      4021      4023      4026
      4018      4021      4027      4028      4018      4021      4027      4029
      4018      4021      4027      4030      4019      4018      4021      4022
      4019      4018      4021      4023      4019      4018      4021      4027
      4020      4018      4021      4022      4020      4018      4021      4023
      4020      4018      4021      4027      4022      4021      4023      4024
      4022      4021      4023      4025      4022      4021      4023      4026
      4022      4021      4027      4028      4022      4021      4027      4029
      4022      4021      4027      4030      4023      4021      4027      4028
      4023      4021      4027      4029      4023      4021      4027      4030
      4024      4023      4021      4027      4025      4023      4021      4027
      4026      4023      4021      4027      4031      4032      4047      4048
      4031      4032      4047      4049      4031      4032      4047      4053
      4032      4031      4035      4036      4032      4031      4035      4037
      4032      4031      4035      4038      4032      4031      4039      4040
      4032      4031      4039      4041      4032      4031      4039      4042
      4032      4031      4043      4044      4032      4031      4043      4045
      4032      4031      4043      4046      4032      4047      4053      4050
      4033      4032      4031      4035      4033      4032      4031      4039
      4033      4032      4031      4043      4033      4032      4047      4048
      4033      4032      4047      4049      4033      4032      4047      4053
      4034      4032      4031      4035      4034      4032      4031      4039
      4034      4032      4031      4043      4034      4032      4047      4048
      4034      4032      4047      4049      4034      4032      4047      4053
      4035      4031      4032      4047      4035      4031      4039      4040
      4035      4031      4039      4041      4035      4031      4039      4042
      4035      4031      4043      4044      4035      4031      4043      4045
      4035      4031      4043      4046      4036      4035      4031      4039
      4036      4035      4031      4043      4037      4035      4031      4039
      4037      4035      4031      4043      4038      4035      4031      4039
      4038      4035      4031      4043      4039      4031      4032      4047
      4039      4031      4043      4044      4039      4031      4043      4045
      4039      4031      4043      4046      4040      4039      4031      4043
      4041      4039      4031      4043      4042      4039      4031      4043
      4043      4031      4032      4047      4047      4053      4050      4051
      4047      4053      4050      4052      4047      4053      4050      4054
      4048      4047      4053      4050      4049      4047      4053      4050
      4050      4054      4055      4056      4050      4054      4055      4057
      4050      4054      4055      4058      4051      4050      4054      4055
      4052      4050      4054      4055      4053      4050      4054      4055
      4054      4055      4058      4059      4054      4055      4058      4060
      4054      4055      4058      4066      4055      4058      4060      4061
      4055      4058      4066      4067      4055      4058      4066      4068
      4055      4058      4066      4069      4056      4055      4058      4059
      4056      4055      4058      4060      4056      4055      4058      4066
      4057      4055      4058      4059      4057      4055      4058      4060
      4057      4055      4058      4066      4058      4060      4061      4062
      4058      4060      4061      4063      4058      4066      4069      4070
      4059      4058      4060      4061      4059      4058      4066      4067
      4059      4058      4066      4068      4059      4058      4066      4069
      4060      4058      4066      4067      4060      4058      4066      4068
      4060      4058      4066      4069      4060      4061      4063      4064
      4060      4061      4063      4065      4060      4061      4063      4075
      4061      4060      4058      4066      4061      4063      4075      4076
      4061      4063      4075      4077      4061      4063      4075      4078
      4062      4061      4063      4064      4062      4061      4063      4065
      4062      4061      4063      4075      4063      4075      4078      4079
      4063      4075      4078      4080      4063      4075      4078      4081
      4064      4063      4075      4076      4064      4063      4075      4077
      4064      4063      4075      4078      4065      4063      4075      4076
      4065      4063      4075      4077      4065      4063      4075      4078
      4066      4069      4070      4071      4066      4069      4070      4072
      4067      4066      4069      4070      4068      4066      4069      4070
      4069      4070      4072      4073      4069      4070      4072      4074
      4069      4070      4072      4122      4070      4072      4122      4123
      4070      4072      4122      4124      4070      4072      4122      4125
      4071      4070      4072      4073      4071      4070      4072      4074
      4071      4070      4072      4122      4072      4122      4125      4126
      4072      4122      4125      4127      4072      4122      4125      4128
      4073      4072      4122      4123      4073      4072      4122      4124
      4073      4072      4122      4125      4074      4072      4122      4123
      4074      4072      4122      4124      4074      4072      4122      4125
      4075      4078      4081      4082      4075      4078      4081      4083
      4075      4078      4081      4084      4076      4075      4078      4079
      4076      4075      4078      4080      4076      4075      4078      4081
      4077      4075      4078      4079      4077      4075      4078      4080
      4077      4075      4078      4081      4078      4081      4084      4085
      4078      4081      4084      4086      4078      4081      4084      4087
      4079      4078      4081      4082      4079      4078      4081      4083
      4079      4078      4081      4084      4080      4078      4081      4082
      4080      4078      4081      4083      4080      4078      4081      4084
      4081      4084      4087      4088      4081      4084      4087      4089
      4081      4084      4087      4090      4082      4081      4084      4085
      4082      4081      4084      4086      4082      4081      4084      4087
      4083      4081      4084      4085      4083      4081      4084      4086
      4083      4081      4084      4087      4084      4087      4090      4091
      4084      4087      4090      4092      4084      4087      4090      4093
      4085      4084      4087      4088      4085      4084      4087      4089
      4085      4084      4087      4090      4086      4084      4087      4088
      4086      4084      4087      4089      4086      4084      4087      4090
      4087      4090      4093      4094      4087      4090      4093      4095
      4088      4087      4090      4091      4088      4087      4090      4092
      4088      4087      4090      4093      4089      4087      4090      4091
      4089      4087      4090      4092      4089      4087      4090      4093
      4090      4093      4095      4096      4090      4093      4095      4097
      4091      4090      4093      4094      4091      4090      4093      4095
      4092      4090      4093      4094      4092      4090      4093      4095
      4093      4095      4097      4098      4093      4095      4097      4099
      4093      4095      4097      4100      4094      4093      4095      4096
      4094      4093      4095      4097      4095      4097      4100      4101
      4095      4097      4100      4102      4095      4097      4100      4103
      4096      4095      4097      4098      4096      4095      4097      4099
      4096      4095      4097      4100      4097      4100      4103      4104
      4097      4100      4103      4105      4097      4100      4103      4106
      4098      4097      4100      4101      4098      4097      4100      4102
      4098      4097      4100      4103      4099      4097      4100      4101
      4099      4097      4100      4102      4099      4097      4100      4103
      4100      4103      4106      4107      4100      4103      4106      4108
      4100      4103      4106      4109      4101      4100      4103      4104
      4101      4100      4103      4105      4101      4100      4103      4106
      4102      4100      4103      4104      4102      4100      4103      4105
      4102      4100      4103      4106      4103      4106      4109      4110
      4103      4106      4109      4111      4103      4106      4109      4112
      4104      4103      4106      4107      4104      4103      4106      4108
      4104      4103      4106      4109      4105      4103      4106      4107
      4105      4103      4106      4108      4105      4103      4106      4109
      4106      4109      4112      4113      4106      4109      4112      4114
      4106      4109      4112      4115      4107      4106      4109      4110
      4107      4106      4109      4111      4107      4106      4109      4112
      4108      4106      4109      4110      4108      4106      4109      4111
      4108      4106      4109      4112      4109      4112      4115      4116
      4109      4112      4115      4117      4109      4112      4115      4118
      4110      4109      4112      4113      4110      4109      4112      4114
      4110      4109      4112      4115      4111      4109      4112      4113
      4111      4109      4112      4114      4111      4109      4112      4115
      4112      4115      4118      4119      4112      4115      4118      4120
      4112      4115      4118      4121      4113      4112      4115      4116
      4113      4112      4115      4117      4113      4112      4115      4118
      4114      4112      4115      4116      4114      4112      4115      4117
      4114      4112      4115      4118      4116      4115      4118      4119
      4116      4115      4118      4120      4116      4115      4118      4121
      4117      4115      4118      4119      4117      4115      4118      4120
      4117      4115      4118      4121      4122      4125      4128      4129
      4122      4125      4128      4130      4122      4125      4128      4131
      4123      4122      4125      4126      4123      4122      4125      4127
      4123      4122      4125      4128      4124      4122      4125      4126
      4124      4122      4125      4127      4124      4122      4125      4128
      4125      4128      4131      4132      4125      4128      4131      4133
      4125      4128      4131      4134      4126      4125      4128      4129
      4126      4125      4128      4130      4126      4125      4128      4131
      4127      4125      4128      4129      4127      4125      4128      4130
      4127      4125      4128      4131      4128      4131      4134      4135
      4128      4131      4134      4136      4128      4131      4134      4137
      4129      4128      4131      4132      4129      4128      4131      4133
      4129      4128      4131      4134      4130      4128      4131      4132
      4130      4128      4131      4133      4130      4128      4131      4134
      4131      4134      4137      4138      4131      4134      4137      4139
      4131      4134      4137      4140      4132      4131      4134      4135
      4132      4131      4134      4136      4132      4131      4134      4137
      4133      4131      4134      4135      4133      4131      4134      4136
      4133      4131      4134      4137      4134      4137      4140      4141
      4134      4137      4140      4142      4134      4137      4140      4143
      4135      4134      4137      4138      4135      4134      4137      4139
      4135      4134      4137      4140      4136      4134      4137      4138
      4136      4134      4137      4139      4136      4134      4137      4140
      4137      4140      4143      4144      4137      4140      4143      4145
      4137      4140      4143      4146      4138      4137      4140      4141
      4138      4137      4140      4142      4138      4137      4140      4143
      4139      4137      4140      4141      4139      4137      4140      4142
      4139      4137      4140      4143      4140      4143      4146      4147
      4140      4143      4146      4148      4140      4143      4146      4149
      4141      4140      4143      4144      4141      4140      4143      4145
      4141      4140      4143      4146      4142      4140      4143      4144
      4142      4140      4143      4145      4142      4140      4143      4146
      4143      4146      4149      4150      4143      4146      4149      4151
      4143      4146      4149      4152      4144      4143      4146      4147
      4144      4143      4146      4148      4144      4143      4146      4149
      4145      4143      4146      4147      4145      4143      4146      4148
      4145      4143      4146      4149      4146      4149      4152      4153
      4146      4149      4152      4154      4146      4149      4152      4155
      4147      4146      4149      4150      4147      4146      4149      4151
      4147      4146      4149      4152      4148      4146      4149      4150
      4148      4146      4149      4151      4148      4146      4149      4152
      4149      4152      4155      4156      4149      4152      4155      4157
      4149      4152      4155      4158      4150      4149      4152      4153
      4150      4149      4152      4154      4150      4149      4152      4155
      4151      4149      4152      4153      4151      4149      4152      4154
      4151      4149      4152      4155      4152      4155      4158      4159
      4152      4155      4158      4160      4152      4155      4158      4161
      4153      4152      4155      4156      4153      4152      4155      4157
      4153      4152      4155      4158      4154      4152      4155      4156
      4154      4152      4155      4157      4154      4152      4155      4158
      4155      4158      4161      4162      4155      4158      4161      4163
      4155      4158      4161      4164      4156      4155      4158      4159
      4156      4155      4158      4160      4156      4155      4158      4161
      4157      4155      4158      4159      4157      4155      4158      4160
      4157      4155      4158      4161      4159      4158      4161      4162
      4159      4158      4161      4163      4159      4158      4161      4164
      4160      4158      4161      4162      4160      4158      4161      4163
      4160      4158      4161      4164      4165      4178      4181      4182
      4165      4178      4181      4183      4165      4178      4181      4188
      4166      4165      4170      4171      4166      4165      4170      4172
      4166      4165      4170      4173      4166      4165      4174      4175
      4166      4165      4174      4176      4166      4165      4174      4177
      4166      4165      4178      4179      4166      4165      4178      4180
      4166      4165      4178      4181      4167      4166      4165      4170
      4167      4166      4165      4174      4167      4166      4165      4178
      4168      4166      4165      4170      4168      4166      4165      4174
      4168      4166      4165      4178      4169      4166      4165      4170
      4169      4166      4165      4174      4169      4166      4165      4178
      4170      4165      4174      4175      4170      4165      4174      4176
      4170      4165      4174      4177      4170      4165      4178      4179
      4170      4165      4178      4180      4170      4165      4178      4181
      4171      4170      4165      4174      4171      4170      4165      4178
      4172      4170      4165      4174      4172      4170      4165      4178
      4173      4170      4165      4174      4173      4170      4165      4178
      4174      4165      4178      4179      4174      4165      4178      4180
      4174      4165      4178      4181      4175      4174      4165      4178
      4176      4174      4165      4178      4177      4174      4165      4178
      4178      4181      4188      4184      4179      4178      4181      4182
      4179      4178      4181      4183      4179      4178      4181      4188
      4180      4178      4181      4182      4180      4178      4181      4183
      4180      4178      4181      4188      4181      4188      4184      4185
      4181      4188      4184      4186      4181      4188      4184      4187
      4182      4181      4188      4184      4183      4181      4188      4184
      4184      4187      4189      4190      4184      4187      4189      4191
      4184      4187      4189      4194      4185      4184      4187      4189
      4186      4184      4187      4189      4187      4189      4194      4192
      4187      4189      4194      4195      4187      4189      4194      4196
      4188      4184      4187      4189      4189      4194      4192      4193
      4189      4194      4192      4244      4189      4194      4196      4197
      4189      4194      4196      4198      4189      4194      4196      4200
      4190      4189      4194      4192      4190      4189      4194      4195
      4190      4189      4194      4196      4191      4189      4194      4192
      4191      4189      4194      4195      4191      4189      4194      4196
      4192      4194      4196      4197      4192      4194      4196      4198
      4192      4194      4196      4200      4192      4244      4246      4247
      4192      4244      4246      4248      4192      4244      4246      4249
      4193      4192      4194      4195      4193      4192      4194      4196
      4193      4192      4244      4245      4193      4192      4244      4246
      4194      4192      4244      4245      4194      4192      4244      4246
      4194      4196      4198      4199      4194      4196      4200      4201
      4194      4196      4200      4202      4195      4194      4192      4244
      4195      4194      4196      4197      4195      4194      4196      4198
      4195      4194      4196      4200      4196      4194      4192      4244
      4196      4200      4202      4203      4196      4200      4202      4204
      4197      4196      4198      4199      4197      4196      4200      4201
      4197      4196      4200      4202      4198      4196      4200      4201
      4198      4196      4200      4202      4199      4198      4196      4200
      4200      4202      4204      4205      4200      4202      4204      4206
      4200      4202      4204      4207      4201      4200      4202      4203
      4201      4200      4202      4204      4202      4204      4207      4208
      4202      4204      4207      4209      4202      4204      4207      4210
      4203      4202      4204      4205      4203      4202      4204      4206
      4203      4202      4204      4207      4204      4207      4210      4211
      4204      4207      4210      4212      4204      4207      4210      4213
      4205      4204      4207      4208      4205      4204      4207      4209
      4205      4204      4207      4210      4206      4204      4207      4208
      4206      4204      4207      4209      4206      4204      4207      4210
      4207      4210      4213      4214      4207      4210      4213      4215
      4207      4210      4213      4216      4208      4207      4210      4211
      4208      4207      4210      4212      4208      4207      4210      4213
      4209      4207      4210      4211      4209      4207      4210      4212
      4209      4207      4210      4213      4210      4213      4216      4217
      4210      4213      4216      4218      4210      4213      4216      4219
      4211      4210      4213      4214      4211      4210      4213      4215
      4211      4210      4213      4216      4212      4210      4213      4214
      4212      4210      4213      4215      4212      4210      4213      4216
      4213      4216      4219      4220      4213      4216      4219      4221
      4213      4216      4219      4222      4214      4213      4216      4217
      4214      4213      4216      4218      4214      4213      4216      4219
      4215      4213      4216      4217      4215      4213      4216      4218
      4215      4213      4216      4219      4216      4219      4222      4223
      4216      4219      4222      4224      4216      4219      4222      4225
      4217      4216      4219      4220      4217      4216      4219      4221
      4217      4216      4219      4222      4218      4216      4219      4220
      4218      4216      4219      4221      4218      4216      4219      4222
      4219      4222      4225      4226      4219      4222      4225      4227
      4219      4222      4225      4228      4220      4219      4222      4223
      4220      4219      4222      4224      4220      4219      4222      4225
      4221      4219      4222      4223      4221      4219      4222      4224
      4221      4219      4222      4225      4222      4225      4228      4229
      4222      4225      4228      4230      4222      4225      4228      4231
      4223      4222      4225      4226      4223      4222      4225      4227
      4223      4222      4225      4228      4224      4222      4225      4226
      4224      4222      4225      4227      4224      4222      4225      4228
      4225      4228      4231      4232      4225      4228      4231      4233
      4225      4228      4231      4234      4226      4225      4228      4229
      4226      4225      4228      4230      4226      4225      4228      4231
      4227      4225      4228      4229      4227      4225      4228      4230
      4227      4225      4228      4231      4228      4231      4234      4235
      4228      4231      4234      4236      4228      4231      4234      4237
      4229      4228      4231      4232      4229      4228      4231      4233
      4229      4228      4231      4234      4230      4228      4231      4232
      4230      4228      4231      4233      4230      4228      4231      4234
      4231      4234      4237      4238      4231      4234      4237      4239
      4231      4234      4237      4240      4232      4231      4234      4235
      4232      4231      4234      4236      4232      4231      4234      4237
      4233      4231      4234      4235      4233      4231      4234      4236
      4233      4231      4234      4237      4234      4237      4240      4241
      4234      4237      4240      4242      4234      4237      4240      4243
      4235      4234      4237      4238      4235      4234      4237      4239
      4235      4234      4237      4240      4236      4234      4237      4238
      4236      4234      4237      4239      4236      4234      4237      4240
      4238      4237      4240      4241      4238      4237      4240      4242
      4238      4237      4240      4243      4239      4237      4240      4241
      4239      4237      4240      4242      4239      4237      4240      4243
      4244      4246      4249      4250      4244      4246      4249      4251
      4244      4246      4249      4252      4245      4244      4246      4247
      4245      4244      4246      4248      4245      4244      4246      4249
      4246      4249      4252      4253      4246      4249      4252      4254
      4246      4249      4252      4255      4247      4246      4249      4250
      4247      4246      4249      4251      4247      4246      4249      4252
      4248      4246      4249      4250      4248      4246      4249      4251
      4248      4246      4249      4252      4249      4252      4255      4256
      4249      4252      4255      4257      4249      4252      4255      4258
      4250      4249      4252      4253      4250      4249      4252      4254
      4250      4249      4252      4255      4251      4249      4252      4253
      4251      4249      4252      4254      4251      4249      4252      4255
      4252      4255      4258      4259      4252      4255      4258      4260
      4252      4255      4258      4261      4253      4252      4255      4256
      4253      4252      4255      4257      4253      4252      4255      4258
      4254      4252      4255      4256      4254      4252      4255      4257
      4254      4252      4255      4258      4255      4258      4261      4262
      4255      4258      4261      4263      4255      4258      4261      4264
      4256      4255      4258      4259      4256      4255      4258      4260
      4256      4255      4258      4261      4257      4255      4258      4259
      4257      4255      4258      4260      4257      4255      4258      4261
      4258      4261      4264      4265      4258      4261      4264      4266
      4258      4261      4264      4267      4259      4258      4261      4262
      4259      4258      4261      4263      4259      4258      4261      4264
      4260      4258      4261      4262      4260      4258      4261      4263
      4260      4258      4261      4264      4261      4264      4267      4268
      4261      4264      4267      4269      4262      4261      4264      4265
      4262      4261      4264      4266      4262      4261      4264      4267
      4263      4261      4264      4265      4263      4261      4264      4266
      4263      4261      4264      4267      4264      4267      4269      4270
      4264      4267      4269      4271      4265      4264      4267      4268
      4265      4264      4267      4269      4266      4264      4267      4268
      4266      4264      4267      4269      4267      4269      4271      4272
      4267      4269      4271      4273      4267      4269      4271      4274
      4268      4267      4269      4270      4268      4267      4269      4271
      4269      4271      4274      4275      4269      4271      4274      4276
      4269      4271      4274      4277      4270      4269      4271      4272
      4270      4269      4271      4273      4270      4269      4271      4274
      4271      4274      4277      4278      4271      4274      4277      4279
      4271      4274      4277      4280      4272      4271      4274      4275
      4272      4271      4274      4276      4272      4271      4274      4277
      4273      4271      4274      4275      4273      4271      4274      4276
      4273      4271      4274      4277      4274      4277      4280      4281
      4274      4277      4280      4282      4274      4277      4280      4283
      4275      4274      4277      4278      4275      4274      4277      4279
      4275      4274      4277      4280      4276      4274      4277      4278
      4276      4274      4277      4279      4276      4274      4277      4280
      4277      4280      4283      4284      4277      4280      4283      4285
      4277      4280      4283      4286      4278      4277      4280      4281
      4278      4277      4280      4282      4278      4277      4280      4283
      4279      4277      4280      4281      4279      4277      4280      4282
      4279      4277      4280      4283      4280      4283      4286      4287
      4280      4283      4286      4288      4280      4283      4286      4289
      4281      4280      4283      4284      4281      4280      4283      4285
      4281      4280      4283      4286      4282      4280      4283      4284
      4282      4280      4283      4285      4282      4280      4283      4286
      4283      4286      4289      4290      4283      4286      4289      4291
      4283      4286      4289      4292      4284      4283      4286      4287
      4284      4283      4286      4288      4284      4283      4286      4289
      4285      4283      4286      4287      4285      4283      4286      4288
      4285      4283      4286      4289      4286      4289      4292      4293
      4286      4289      4292      4294      4286      4289      4292      4295
      4287      4286      4289      4290      4287      4286      4289      4291
      4287      4286      4289      4292      4288      4286      4289      4290
      4288      4286      4289      4291      4288      4286      4289      4292
      4290      4289      4292      4293      4290      4289      4292      4294
      4290      4289      4292      4295      4291      4289      4292      4293
      4291      4289      4292      4294      4291      4289      4292      4295
      4296      4300      4302      4303      4296      4300      4304      4305
      4296      4300      4304      4306      4296      4300      4304      4308
      4296      4316      4312      4308      4296      4316      4312      4313
      4296      4316      4312      4314      4296      4316      4321      4318
      4297      4296      4298      4299      4297      4296      4300      4301
      4297      4296      4300      4302      4297      4296      4300      4304
      4297      4296      4316      4312      4297      4296      4316      4317
      4297      4296      4316      4321      4298      4296      4300      4301
      4298      4296      4300      4302      4298      4296      4300      4304
      4298      4296      4316      4312      4298      4296      4316      4317
      4298      4296      4316      4321      4299      4298      4296      4300
      4299      4298      4296      4316      4300      4296      4316      4312
      4300      4296      4316      4317      4300      4296      4316      4321
      4300      4304      4306      4307      4300      4304      4308      4309
      4300      4304      4308      4310      4300      4304      4308      4312
      4301      4300      4296      4316      4301      4300      4302      4303
      4301      4300      4304      4305      4301      4300      4304      4306
      4301      4300      4304      4308      4302      4300      4296      4316
      4302      4300      4304      4305      4302      4300      4304      4306
      4302      4300      4304      4308      4303      4302      4300      4304
      4304      4300      4296      4316      4304      4308      4310      4311
      4304      4308      4312      4313      4304      4308      4312      4314
      4304      4308      4312      4316      4305      4304      4306      4307
      4305      4304      4308      4309      4305      4304      4308      4310
      4305      4304      4308      4312      4306      4304      4308      4309
      4306      4304      4308      4310      4306      4304      4308      4312
      4307      4306      4304      4308      4308      4312      4314      4315
      4308      4312      4316      4317      4308      4312      4316      4321
      4309      4308      4310      4311      4309      4308      4312      4313
      4309      4308      4312      4314      4309      4308      4312      4316
      4310      4308      4312      4313      4310      4308      4312      4314
      4310      4308      4312      4316      4311      4310      4308      4312
      4312      4316      4321      4318      4313      4312      4314      4315
      4313      4312      4316      4317      4313      4312      4316      4321
      4314      4312      4316      4317      4314      4312      4316      4321
      4315      4314      4312      4316      4316      4321      4318      4319
      4316      4321      4318      4320      4316      4321      4318      4322
      4317      4316      4321      4318      4318      4322      4323      4324
      4318      4322      4323      4325      4318      4322      4323      4326
      4319      4318      4322      4323      4320      4318      4322      4323
      4321      4318      4322      4323      4322      4323      4326      4327
      4322      4323      4326      4328      4322      4323      4326      4334
      4323      4326      4328      4329      4323      4326      4334      4335
      4323      4326      4334      4336      4323      4326      4334      4337
      4324      4323      4326      4327      4324      4323      4326      4328
      4324      4323      4326      4334      4325      4323      4326      4327
      4325      4323      4326      4328      4325      4323      4326      4334
      4326      4328      4329      4330      4326      4328      4329      4331
      4326      4334      4337      4338      4327      4326      4328      4329
      4327      4326      4334      4335      4327      4326      4334      4336
      4327      4326      4334      4337      4328      4326      4334      4335
      4328      4326      4334      4336      4328      4326      4334      4337
      4328      4329      4331      4332      4328      4329      4331      4333
      4328      4329      4331      4343      4329      4328      4326      4334
      4329      4331      4343      4344      4329      4331      4343      4345
      4329      4331      4343      4346      4330      4329      4331      4332
      4330      4329      4331      4333      4330      4329      4331      4343
      4331      4343      4346      4347      4331      4343      4346      4348
      4331      4343      4346      4349      4332      4331      4343      4344
      4332      4331      4343      4345      4332      4331      4343      4346
      4333      4331      4343      4344      4333      4331      4343      4345
      4333      4331      4343      4346      4334      4337      4338      4339
      4334      4337      4338      4340      4335      4334      4337      4338
      4336      4334      4337      4338      4337      4338      4340      4341
      4337      4338      4340      4342      4337      4338      4340      4390
      4338      4340      4390      4391      4338      4340      4390      4392
      4338      4340      4390      4393      4339      4338      4340      4341
      4339      4338      4340      4342      4339      4338      4340      4390
      4340      4390      4393      4394      4340      4390      4393      4395
      4340      4390      4393      4396      4341      4340      4390      4391
      4341      4340      4390      4392      4341      4340      4390      4393
      4342      4340      4390      4391      4342      4340      4390      4392
      4342      4340      4390      4393      4343      4346      4349      4350
      4343      4346      4349      4351      4344      4343      4346      4347
      4344      4343      4346      4348      4344      4343      4346      4349
      4345      4343      4346      4347      4345      4343      4346      4348
      4345      4343      4346      4349      4346      4349      4351      4352
      4346      4349      4351      4353      4347      4346      4349      4350
      4347      4346      4349      4351      4348      4346      4349      4350
      4348      4346      4349      4351      4349      4351      4353      4354
      4349      4351      4353      4355      4349      4351      4353      4356
      4350      4349      4351      4352      4350      4349      4351      4353
      4351      4353      4356      4357      4351      4353      4356      4358
      4352      4351      4353      4354      4352      4351      4353      4355
      4352      4351      4353      4356      4353      4356      4358      4359
      4353      4356      4358      4360      4354      4353      4356      4357
      4354      4353      4356      4358      4355      4353      4356      4357
      4355      4353      4356      4358      4356      4358      4360      4361
      4356      4358      4360      4362      4356      4358      4360      4363
      4357      4356      4358      4359      4357      4356      4358      4360
      4358      4360      4363      4364      4358      4360      4363      4365
      4359      4358      4360      4361      4359      4358      4360      4362
      4359      4358      4360      4363      4360      4363      4365      4366
      4360      4363      4365      4367      4361      4360      4363      4364
      4361      4360      4363      4365      4362      4360      4363      4364
      4362      4360      4363      4365      4363      4365      4367      4368
      4363      4365      4367      4369      4363      4365      4367      4370
      4364      4363      4365      4366      4364      4363      4365      4367
      4365      4367      4370      4371      4365      4367      4370      4372
      4366      4365      4367      4368      4366      4365      4367      4369
      4366      4365      4367      4370      4367      4370      4372      4373
      4367      4370      4372      4374      4368      4367      4370      4371
      4368      4367      4370      4372      4369      4367      4370      4371
      4369      4367      4370      4372      4370      4372      4374      4375
      4370      4372      4374      4376      4370      4372      4374      4377
      4371      4370      4372      4373      4371      4370      4372      4374
      4372      4374      4377      4378      4372      4374      4377      4379
      4372      4374      4377      4380      4373      4372      4374      4375
      4373      4372      4374      4376      4373      4372      4374      4377
      4374      4377      4380      4381      4374      4377      4380      4382
      4374      4377      4380      4383      4375      4374      4377      4378
      4375      4374      4377      4379      4375      4374      4377      4380
      4376      4374      4377      4378      4376      4374      4377      4379
      4376      4374      4377      4380      4377      4380      4383      4384
      4377      4380      4383      4385      4377      4380      4383      4386
      4378      4377      4380      4381      4378      4377      4380      4382
      4378      4377      4380      4383      4379      4377      4380      4381
      4379      4377      4380      4382      4379      4377      4380      4383
      4380      4383      4386      4387      4380      4383      4386      4388
      4380      4383      4386      4389      4381      4380      4383      4384
      4381      4380      4383      4385      4381      4380      4383      4386
      4382      4380      4383      4384      4382      4380      4383      4385
      4382      4380      4383      4386      4384      4383      4386      4387
      4384      4383      4386      4388      4384      4383      4386      4389
      4385      4383      4386      4387      4385      4383      4386      4388
      4385      4383      4386      4389      4390      4393      4396      4397
      4390      4393      4396      4398      4390      4393      4396      4399
      4391      4390      4393      4394      4391      4390      4393      4395
      4391      4390      4393      4396      4392      4390      4393      4394
      4392      4390      4393      4395      4392      4390      4393      4396
      4393      4396      4399      4400      4393      4396      4399      4401
      4393      4396      4399      4402      4394      4393      4396      4397
      4394      4393      4396      4398      4394      4393      4396      4399
      4395      4393      4396      4397      4395      4393      4396      4398
      4395      4393      4396      4399      4396      4399      4402      4403
      4396      4399      4402      4404      4396      4399      4402      4405
      4397      4396      4399      4400      4397      4396      4399      4401
      4397      4396      4399      4402      4398      4396      4399      4400
      4398      4396      4399      4401      4398      4396      4399      4402
      4399      4402      4405      4406      4399      4402      4405      4407
      4399      4402      4405      4408      4400      4399      4402      4403
      4400      4399      4402      4404      4400      4399      4402      4405
      4401      4399      4402      4403      4401      4399      4402      4404
      4401      4399      4402      4405      4402      4405      4408      4409
      4402      4405      4408      4410      4402      4405      4408      4411
      4403      4402      4405      4406      4403      4402      4405      4407
      4403      4402      4405      4408      4404      4402      4405      4406
      4404      4402      4405      4407      4404      4402      4405      4408
      4405      4408      4411      4412      4405      4408      4411      4413
      4405      4408      4411      4414      4406      4405      4408      4409
      4406      4405      4408      4410      4406      4405      4408      4411
      4407      4405      4408      4409      4407      4405      4408      4410
      4407      4405      4408      4411      4408      4411      4414      4415
      4408      4411      4414      4416      4408      4411      4414      4417
      4409      4408      4411      4412      4409      4408      4411      4413
      4409      4408      4411      4414      4410      4408      4411      4412
      4410      4408      4411      4413      4410      4408      4411      4414
      4411      4414      4417      4418      4411      4414      4417      4419
      4411      4414      4417      4420      4412      4411      4414      4415
      4412      4411      4414      4416      4412      4411      4414      4417
      4413      4411      4414      4415      4413      4411      4414      4416
      4413      4411      4414      4417      4414      4417      4420      4421
      4414      4417      4420      4422      4414      4417      4420      4423
      4415      4414      4417      4418      4415      4414      4417      4419
      4415      4414      4417      4420      4416      4414      4417      4418
      4416      4414      4417      4419      4416      4414      4417      4420
      4417      4420      4423      4424      4417      4420      4423      4425
      4417      4420      4423      4426      4418      4417      4420      4421
      4418      4417      4420      4422      4418      4417      4420      4423
      4419      4417      4420      4421      4419      4417      4420      4422
      4419      4417      4420      4423      4420      4423      4426      4427
      4420      4423      4426      4428      4420      4423      4426      4429
      4421      4420      4423      4424      4421      4420      4423      4425
      4421      4420      4423      4426      4422      4420      4423      4424
      4422      4420      4423      4425      4422      4420      4423      4426
      4423      4426      4429      4430      4423      4426      4429      4431
      4423      4426      4429      4432      4424      4423      4426      4427
      4424      4423      4426      4428      4424      4423      4426      4429
      4425      4423      4426      4427      4425      4423      4426      4428
      4425      4423      4426      4429      4426      4429      4432      4433
      4426      4429      4432      4434      4426      4429      4432      4435
      4427      4426      4429      4430      4427      4426      4429      4431
      4427      4426      4429      4432      4428      4426      4429      4430
      4428      4426      4429      4431      4428      4426      4429      4432
      4429      4432      4435      4436      4429      4432      4435      4437
      4429      4432      4435      4438      4430      4429      4432      4433
      4430      4429      4432      4434      4430      4429      4432      4435
      4431      4429      4432      4433      4431      4429      4432      4434
      4431      4429      4432      4435      4433      4432      4435      4436
      4433      4432      4435      4437      4433      4432      4435      4438
      4434      4432      4435      4436      4434      4432      4435      4437
      4434      4432      4435      4438      4439      4443      4446      4447
      4439      4443      4446      4448      4439      4443      4446      4452
      4440      4439      4443      4444      4440      4439      4443      4445
      4440      4439      4443      4446      4441      4439      4443      4444
      4441      4439      4443      4445      4441      4439      4443      4446
      4442      4439      4443      4444      4442      4439      4443      4445
      4442      4439      4443      4446      4443      4446      4452      4449
      4444      4443      4446      4447      4444      4443      4446      4448
      4444      4443      4446      4452      4445      4443      4446      4447
      4445      4443      4446      4448      4445      4443      4446      4452
      4446      4452      4449      4450      4446      4452      4449      4451
      4446      4452      4449      4453      4447      4446      4452      4449
      4448      4446      4452      4449      4449      4453      4454      4455
      4449      4453      4454      4456      4449      4453      4454      4457
      4450      4449      4453      4454      4451      4449      4453      4454
      4452      4449      4453      4454      4453      4454      4457      4458
      4453      4454      4457      4459      4453      4454      4457      4465
      4454      4457      4459      4460      4454      4457      4465      4466
      4454      4457      4465      4467      4454      4457      4465      4468
      4455      4454      4457      4458      4455      4454      4457      4459
      4455      4454      4457      4465      4456      4454      4457      4458
      4456      4454      4457      4459      4456      4454      4457      4465
      4457      4459      4460      4461      4457      4459      4460      4462
      4457      4465      4468      4469      4458      4457      4459      4460
      4458      4457      4465      4466      4458      4457      4465      4467
      4458      4457      4465      4468      4459      4457      4465      4466
      4459      4457      4465      4467      4459      4457      4465      4468
      4459      4460      4462      4463      4459      4460      4462      4464
      4459      4460      4462      4474      4460      4459      4457      4465
      4460      4462      4474      4475      4460      4462      4474      4476
      4460      4462      4474      4477      4461      4460      4462      4463
      4461      4460      4462      4464      4461      4460      4462      4474
      4462      4474      4477      4478      4462      4474      4477      4479
      4462      4474      4477      4480      4463      4462      4474      4475
      4463      4462      4474      4476      4463      4462      4474      4477
      4464      4462      4474      4475      4464      4462      4474      4476
      4464      4462      4474      4477      4465      4468      4469      4470
      4465      4468      4469      4471      4466      4465      4468      4469
      4467      4465      4468      4469      4468      4469      4471      4472
      4468      4469      4471      4473      4468      4469      4471      4521
      4469      4471      4521      4522      4469      4471      4521      4523
      4469      4471      4521      4524      4470      4469      4471      4472
      4470      4469      4471      4473      4470      4469      4471      4521
      4471      4521      4524      4525      4471      4521      4524      4526
      4471      4521      4524      4527      4472      4471      4521      4522
      4472      4471      4521      4523      4472      4471      4521      4524
      4473      4471      4521      4522      4473      4471      4521      4523
      4473      4471      4521      4524      4474      4477      4480      4481
      4474      4477      4480      4482      4474      4477      4480      4483
      4475      4474      4477      4478      4475      4474      4477      4479
      4475      4474      4477      4480      4476      4474      4477      4478
      4476      4474      4477      4479      4476      4474      4477      4480
      4477      4480      4483      4484      4477      4480      4483      4485
      4477      4480      4483      4486      4478      4477      4480      4481
      4478      4477      4480      4482      4478      4477      4480      4483
      4479      4477      4480      4481      4479      4477      4480      4482
      4479      4477      4480      4483      4480      4483      4486      4487
      4480      4483      4486      4488      4480      4483      4486      4489
      4481      4480      4483      4484      4481      4480      4483      4485
      4481      4480      4483      4486      4482      4480      4483      4484
      4482      4480      4483      4485      4482      4480      4483      4486
      4483      4486      4489      4490      4483      4486      4489      4491
      4483      4486      4489      4492      4484      4483      4486      4487
      4484      4483      4486      4488      4484      4483      4486      4489
      4485      4483      4486      4487      4485      4483      4486      4488
      4485      4483      4486      4489      4486      4489      4492      4493
      4486      4489      4492      4494      4487      4486      4489      4490
      4487      4486      4489      4491      4487      4486      4489      4492
      4488      4486      4489      4490      4488      4486      4489      4491
      4488      4486      4489      4492      4489      4492      4494      4495
      4489      4492      4494      4496      4490      4489      4492      4493
      4490      4489      4492      4494      4491      4489      4492      4493
      4491      4489      4492      4494      4492      4494      4496      4497
      4492      4494      4496      4498      4492      4494      4496      4499
      4493      4492      4494      4495      4493      4492      4494      4496
      4494      4496      4499      4500      4494      4496      4499      4501
      4494      4496      4499      4502      4495      4494      4496      4497
      4495      4494      4496      4498      4495      4494      4496      4499
      4496      4499      4502      4503      4496      4499      4502      4504
      4496      4499      4502      4505      4497      4496      4499      4500
      4497      4496      4499      4501      4497      4496      4499      4502
      4498      4496      4499      4500      4498      4496      4499      4501
      4498      4496      4499      4502      4499      4502      4505      4506
      4499      4502      4505      4507      4499      4502      4505      4508
      4500      4499      4502      4503      4500      4499      4502      4504
      4500      4499      4502      4505      4501      4499      4502      4503
      4501      4499      4502      4504      4501      4499      4502      4505
      4502      4505      4508      4509      4502      4505      4508      4510
      4502      4505      4508      4511      4503      4502      4505      4506
      4503      4502      4505      4507      4503      4502      4505      4508
      4504      4502      4505      4506      4504      4502      4505      4507
      4504      4502      4505      4508      4505      4508      4511      4512
      4505      4508      4511      4513      4505      4508      4511      4514
      4506      4505      4508      4509      4506      4505      4508      4510
      4506      4505      4508      4511      4507      4505      4508      4509
      4507      4505      4508      4510      4507      4505      4508      4511
      4508      4511      4514      4515      4508      4511      4514      4516
      4508      4511      4514      4517      4509      4508      4511      4512
      4509      4508      4511      4513      4509      4508      4511      4514
      4510      4508      4511      4512      4510      4508      4511      4513
      4510      4508      4511      4514      4511      4514      4517      4518
      4511      4514      4517      4519      4511      4514      4517      4520
      4512      4511      4514      4515      4512      4511      4514      4516
      4512      4511      4514      4517      4513      4511      4514      4515
      4513      4511      4514      4516      4513      4511      4514      4517
      4515      4514      4517      4518      4515      4514      4517      4519
      4515      4514      4517      4520      4516      4514      4517      4518
      4516      4514      4517      4519      4516      4514      4517      4520
      4521      4524      4527      4528      4521      4524      4527      4529
      4521      4524      4527      4530      4522      4521      4524      4525
      4522      4521      4524      4526      4522      4521      4524      4527
      4523      4521      4524      4525      4523      4521      4524      4526
      4523      4521      4524      4527      4524      4527      4530      4531
      4524      4527      4530      4532      4524      4527      4530      4533
      4525      4524      4527      4528      4525      4524      4527      4529
      4525      4524      4527      4530      4526      4524      4527      4528
      4526      4524      4527      4529      4526      4524      4527      4530
      4527      4530      4533      4534      4527      4530      4533      4535
      4527      4530      4533      4536      4528      4527      4530      4531
      4528      4527      4530      4532      4528      4527      4530      4533
      4529      4527      4530      4531      4529      4527      4530      4532
      4529      4527      4530      4533      4530      4533      4536      4537
      4530      4533      4536      4538      4530      4533      4536      4539
      4531      4530      4533      4534      4531      4530      4533      4535
      4531      4530      4533      4536      4532      4530      4533      4534
      4532      4530      4533      4535      4532      4530      4533      4536
      4533      4536      4539      4540      4533      4536      4539      4541
      4533      4536      4539      4542      4534      4533      4536      4537
      4534      4533      4536      4538      4534      4533      4536      4539
      4535      4533      4536      4537      4535      4533      4536      4538
      4535      4533      4536      4539      4536      4539      4542      4543
      4536      4539      4542      4544      4536      4539      4542      4545
      4537      4536      4539      4540      4537      4536      4539      4541
      4537      4536      4539      4542      4538      4536      4539      4540
      4538      4536      4539      4541      4538      4536      4539      4542
      4539      4542      4545      4546      4539      4542      4545      4547
      4539      4542      4545      4548      4540      4539      4542      4543
      4540      4539      4542      4544      4540      4539      4542      4545
      4541      4539      4542      4543      4541      4539      4542      4544
      4541      4539      4542      4545      4542      4545      4548      4549
      4542      4545      4548      4550      4542      4545      4548      4551
      4543      4542      4545      4546      4543      4542      4545      4547
      4543      4542      4545      4548      4544      4542      4545      4546
      4544      4542      4545      4547      4544      4542      4545      4548
      4545      4548      4551      4552      4545      4548      4551      4553
      4545      4548      4551      4554      4546      4545      4548      4549
      4546      4545      4548      4550      4546      4545      4548      4551
      4547      4545      4548      4549      4547      4545      4548      4550
      4547      4545      4548      4551      4548      4551      4554      4555
      4548      4551      4554      4556      4548      4551      4554      4557
      4549      4548      4551      4552      4549      4548      4551      4553
      4549      4548      4551      4554      4550      4548      4551      4552
      4550      4548      4551      4553      4550      4548      4551      4554
      4551      4554      4557      4558      4551      4554      4557      4559
      4551      4554      4557      4560      4552      4551      4554      4555
      4552      4551      4554      4556      4552      4551      4554      4557
      4553      4551      4554      4555      4553      4551      4554      4556
      4553      4551      4554      4557      4554      4557      4560      4561
      4554      4557      4560      4562      4554      4557      4560      4563
      4555      4554      4557      4558      4555      4554      4557      4559
      4555      4554      4557      4560      4556      4554      4557      4558
      4556      4554      4557      4559      4556      4554      4557      4560
      4557      4560      4563      4564      4557      4560      4563      4565
      4557      4560      4563      4566      4558      4557      4560      4561
      4558      4557      4560      4562      4558      4557      4560      4563
      4559      4557      4560      4561      4559      4557      4560      4562
      4559      4557      4560      4563      4560      4563      4566      4567
      4560      4563      4566      4568      4560      4563      4566      4569
      4561      4560      4563      4564      4561      4560      4563      4565
      4561      4560      4563      4566      4562      4560      4563      4564
      4562      4560      4563      4565      4562      4560      4563      4566
      4564      4563      4566      4567      4564      4563      4566      4568
      4564      4563      4566      4569      4565      4563      4566      4567
      4565      4563      4566      4568      4565      4563      4566      4569
      4570      4574      4577      4578      4570      4574      4577      4579
      4570      4574      4577      4583      4571      4570      4574      4575
      4571      4570      4574      4576      4571      4570      4574      4577
      4572      4570      4574      4575      4572      4570      4574      4576
      4572      4570      4574      4577      4573      4570      4574      4575
      4573      4570      4574      4576      4573      4570      4574      4577
      4574      4577      4583      4580      4575      4574      4577      4578
      4575      4574      4577      4579      4575      4574      4577      4583
      4576      4574      4577      4578      4576      4574      4577      4579
      4576      4574      4577      4583      4577      4583      4580      4581
      4577      4583      4580      4582      4577      4583      4580      4584
      4578      4577      4583      4580      4579      4577      4583      4580
      4580      4584      4585      4586      4580      4584      4585      4587
      4580      4584      4585      4588      4581      4580      4584      4585
      4582      4580      4584      4585      4583      4580      4584      4585
      4584      4585      4588      4589      4584      4585      4588      4590
      4584      4585      4588      4596      4585      4588      4590      4591
      4585      4588      4596      4597      4585      4588      4596      4598
      4585      4588      4596      4599      4586      4585      4588      4589
      4586      4585      4588      4590      4586      4585      4588      4596
      4587      4585      4588      4589      4587      4585      4588      4590
      4587      4585      4588      4596      4588      4590      4591      4592
      4588      4590      4591      4593      4588      4596      4599      4600
      4589      4588      4590      4591      4589      4588      4596      4597
      4589      4588      4596      4598      4589      4588      4596      4599
      4590      4588      4596      4597      4590      4588      4596      4598
      4590      4588      4596      4599      4590      4591      4593      4594
      4590      4591      4593      4595      4590      4591      4593      4605
      4591      4590      4588      4596      4591      4593      4605      4606
      4591      4593      4605      4607      4591      4593      4605      4608
      4592      4591      4593      4594      4592      4591      4593      4595
      4592      4591      4593      4605      4593      4605      4608      4609
      4593      4605      4608      4610      4593      4605      4608      4611
      4594      4593      4605      4606      4594      4593      4605      4607
      4594      4593      4605      4608      4595      4593      4605      4606
      4595      4593      4605      4607      4595      4593      4605      4608
      4596      4599      4600      4601      4596      4599      4600      4602
      4597      4596      4599      4600      4598      4596      4599      4600
      4599      4600      4602      4603      4599      4600      4602      4604
      4599      4600      4602      4652      4600      4602      4652      4653
      4600      4602      4652      4654      4600      4602      4652      4655
      4601      4600      4602      4603      4601      4600      4602      4604
      4601      4600      4602      4652      4602      4652      4655      4656
      4602      4652      4655      4657      4602      4652      4655      4658
      4603      4602      4652      4653      4603      4602      4652      4654
      4603      4602      4652      4655      4604      4602      4652      4653
      4604      4602      4652      4654      4604      4602      4652      4655
      4605      4608      4611      4612      4605      4608      4611      4613
      4606      4605      4608      4609      4606      4605      4608      4610
      4606      4605      4608      4611      4607      4605      4608      4609
      4607      4605      4608      4610      4607      4605      4608      4611
      4608      4611      4613      4614      4608      4611      4613      4615
      4609      4608      4611      4612      4609      4608      4611      4613
      4610      4608      4611      4612      4610      4608      4611      4613
      4611      4613      4615      4616      4611      4613      4615      4617
      4611      4613      4615      4618      4612      4611      4613      4614
      4612      4611      4613      4615      4613      4615      4618      4619
      4613      4615      4618      4620      4614      4613      4615      4616
      4614      4613      4615      4617      4614      4613      4615      4618
      4615      4618      4620      4621      4615      4618      4620      4622
      4616      4615      4618      4619      4616      4615      4618      4620
      4617      4615      4618      4619      4617      4615      4618      4620
      4618      4620      4622      4623      4618      4620      4622      4624
      4618      4620      4622      4625      4619      4618      4620      4621
      4619      4618      4620      4622      4620      4622      4625      4626
      4620      4622      4625      4627      4621      4620      4622      4623
      4621      4620      4622      4624      4621      4620      4622      4625
      4622      4625      4627      4628      4622      4625      4627      4629
      4623      4622      4625      4626      4623      4622      4625      4627
      4624      4622      4625      4626      4624      4622      4625      4627
      4625      4627      4629      4630      4625      4627      4629      4631
      4625      4627      4629      4632      4626      4625      4627      4628
      4626      4625      4627      4629      4627      4629      4632      4633
      4627      4629      4632      4634      4628      4627      4629      4630
      4628      4627      4629      4631      4628      4627      4629      4632
      4629      4632      4634      4635      4629      4632      4634      4636
      4630      4629      4632      4633      4630      4629      4632      4634
      4631      4629      4632      4633      4631      4629      4632      4634
      4632      4634      4636      4637      4632      4634      4636      4638
      4632      4634      4636      4639      4633      4632      4634      4635
      4633      4632      4634      4636      4634      4636      4639      4640
      4634      4636      4639      4641      4634      4636      4639      4642
      4635      4634      4636      4637      4635      4634      4636      4638
      4635      4634      4636      4639      4636      4639      4642      4643
      4636      4639      4642      4644      4636      4639      4642      4645
      4637      4636      4639      4640      4637      4636      4639      4641
      4637      4636      4639      4642      4638      4636      4639      4640
      4638      4636      4639      4641      4638      4636      4639      4642
      4639      4642      4645      4646      4639      4642      4645      4647
      4639      4642      4645      4648      4640      4639      4642      4643
      4640      4639      4642      4644      4640      4639      4642      4645
      4641      4639      4642      4643      4641      4639      4642      4644
      4641      4639      4642      4645      4642      4645      4648      4649
      4642      4645      4648      4650      4642      4645      4648      4651
      4643      4642      4645      4646      4643      4642      4645      4647
      4643      4642      4645      4648      4644      4642      4645      4646
      4644      4642      4645      4647      4644      4642      4645      4648
      4646      4645      4648      4649      4646      4645      4648      4650
      4646      4645      4648      4651      4647      4645      4648      4649
      4647      4645      4648      4650      4647      4645      4648      4651
      4652      4655      4658      4659      4652      4655      4658      4660
      4652      4655      4658      4661      4653      4652      4655      4656
      4653      4652      4655      4657      4653      4652      4655      4658
      4654      4652      4655      4656      4654      4652      4655      4657
      4654      4652      4655      4658      4655      4658      4661      4662
      4655      4658      4661      4663      4655      4658      4661      4664
      4656      4655      4658      4659      4656      4655      4658      4660
      4656      4655      4658      4661      4657      4655      4658      4659
      4657      4655      4658      4660      4657      4655      4658      4661
      4658      4661      4664      4665      4658      4661      4664      4666
      4658      4661      4664      4667      4659      4658      4661      4662
      4659      4658      4661      4663      4659      4658      4661      4664
      4660      4658      4661      4662      4660      4658      4661      4663
      4660      4658      4661      4664      4661      4664      4667      4668
      4661      4664      4667      4669      4661      4664      4667      4670
      4662      4661      4664      4665      4662      4661      4664      4666
      4662      4661      4664      4667      4663      4661      4664      4665
      4663      4661      4664      4666      4663      4661      4664      4667
      4664      4667      4670      4671      4664      4667      4670      4672
      4664      4667      4670      4673      4665      4664      4667      4668
      4665      4664      4667      4669      4665      4664      4667      4670
      4666      4664      4667      4668      4666      4664      4667      4669
      4666      4664      4667      4670      4667      4670      4673      4674
      4667      4670      4673      4675      4667      4670      4673      4676
      4668      4667      4670      4671      4668      4667      4670      4672
      4668      4667      4670      4673      4669      4667      4670      4671
      4669      4667      4670      4672      4669      4667      4670      4673
      4670      4673      4676      4677      4670      4673      4676      4678
      4670      4673      4676      4679      4671      4670      4673      4674
      4671      4670      4673      4675      4671      4670      4673      4676
      4672      4670      4673      4674      4672      4670      4673      4675
      4672      4670      4673      4676      4673      4676      4679      4680
      4673      4676      4679      4681      4673      4676      4679      4682
      4674      4673      4676      4677      4674      4673      4676      4678
      4674      4673      4676      4679      4675      4673      4676      4677
      4675      4673      4676      4678      4675      4673      4676      4679
      4676      4679      4682      4683      4676      4679      4682      4684
      4676      4679      4682      4685      4677      4676      4679      4680
      4677      4676      4679      4681      4677      4676      4679      4682
      4678      4676      4679      4680      4678      4676      4679      4681
      4678      4676      4679      4682      4679      4682      4685      4686
      4679      4682      4685      4687      4679      4682      4685      4688
      4680      4679      4682      4683      4680      4679      4682      4684
      4680      4679      4682      4685      4681      4679      4682      4683
      4681      4679      4682      4684      4681      4679      4682      4685
      4682      4685      4688      4689      4682      4685      4688      4690
      4682      4685      4688      4691      4683      4682      4685      4686
      4683      4682      4685      4687      4683      4682      4685      4688
      4684      4682      4685      4686      4684      4682      4685      4687
      4684      4682      4685      4688      4685      4688      4691      4692
      4685      4688      4691      4693      4685      4688      4691      4694
      4686      4685      4688      4689      4686      4685      4688      4690
      4686      4685      4688      4691      4687      4685      4688      4689
      4687      4685      4688      4690      4687      4685      4688      4691
      4688      4691      4694      4695      4688      4691      4694      4696
      4688      4691      4694      4697      4689      4688      4691      4692
      4689      4688      4691      4693      4689      4688      4691      4694
      4690      4688      4691      4692      4690      4688      4691      4693
      4690      4688      4691      4694      4691      4694      4697      4698
      4691      4694      4697      4699      4691      4694      4697      4700
      4692      4691      4694      4695      4692      4691      4694      4696
      4692      4691      4694      4697      4693      4691      4694      4695
      4693      4691      4694      4696      4693      4691      4694      4697
      4695      4694      4697      4698      4695      4694      4697      4699
      4695      4694      4697      4700      4696      4694      4697      4698
      4696      4694      4697      4699      4696      4694      4697      4700
      4701      4714      4717      4718      4701      4714      4717      4719
      4701      4714      4717      4724      4702      4701      4706      4707
      4702      4701      4706      4708      4702      4701      4706      4709
      4702      4701      4710      4711      4702      4701      4710      4712
      4702      4701      4710      4713      4702      4701      4714      4715
      4702      4701      4714      4716      4702      4701      4714      4717
      4703      4702      4701      4706      4703      4702      4701      4710
      4703      4702      4701      4714      4704      4702      4701      4706
      4704      4702      4701      4710      4704      4702      4701      4714
      4705      4702      4701      4706      4705      4702      4701      4710
      4705      4702      4701      4714      4706      4701      4710      4711
      4706      4701      4710      4712      4706      4701      4710      4713
      4706      4701      4714      4715      4706      4701      4714      4716
      4706      4701      4714      4717      4707      4706      4701      4710
      4707      4706      4701      4714      4708      4706      4701      4710
      4708      4706      4701      4714      4709      4706      4701      4710
      4709      4706      4701      4714      4710      4701      4714      4715
      4710      4701      4714      4716      4710      4701      4714      4717
      4711      4710      4701      4714      4712      4710      4701      4714
      4713      4710      4701      4714      4714      4717      4724      4720
      4715      4714      4717      4718      4715      4714      4717      4719
      4715      4714      4717      4724      4716      4714      4717      4718
      4716      4714      4717      4719      4716      4714      4717      4724
      4717      4724      4720      4721      4717      4724      4720      4722
      4717      4724      4720      4723      4718      4717      4724      4720
      4719      4717      4724      4720      4720      4723      4725      4726
      4720      4723      4725      4727      4720      4723      4725      4730
      4721      4720      4723      4725      4722      4720      4723      4725
      4723      4725      4730      4728      4723      4725      4730      4731
      4723      4725      4730      4732      4724      4720      4723      4725
      4725      4730      4728      4729      4725      4730      4728      4780
      4725      4730      4732      4733      4725      4730      4732      4734
      4725      4730      4732      4736      4726      4725      4730      4728
      4726      4725      4730      4731      4726      4725      4730      4732
      4727      4725      4730      4728      4727      4725      4730      4731
      4727      4725      4730      4732      4728      4730      4732      4733
      4728      4730      4732      4734      4728      4730      4732      4736
      4728      4780      4782      4783      4728      4780      4782      4784
      4728      4780      4782      4785      4729      4728      4730      4731
      4729      4728      4730      4732      4729      4728      4780      4781
      4729      4728      4780      4782      4730      4728      4780      4781
      4730      4728      4780      4782      4730      4732      4734      4735
      4730      4732      4736      4737      4730      4732      4736      4738
      4731      4730      4728      4780      4731      4730      4732      4733
      4731      4730      4732      4734      4731      4730      4732      4736
      4732      4730      4728      4780      4732      4736      4738      4739
      4732      4736      4738      4740      4733      4732      4734      4735
      4733      4732      4736      4737      4733      4732      4736      4738
      4734      4732      4736      4737      4734      4732      4736      4738
      4735      4734      4732      4736      4736      4738      4740      4741
      4736      4738      4740      4742      4736      4738      4740      4743
      4737      4736      4738      4739      4737      4736      4738      4740
      4738      4740      4743      4744      4738      4740      4743      4745
      4738      4740      4743      4746      4739      4738      4740      4741
      4739      4738      4740      4742      4739      4738      4740      4743
      4740      4743      4746      4747      4740      4743      4746      4748
      4740      4743      4746      4749      4741      4740      4743      4744
      4741      4740      4743      4745      4741      4740      4743      4746
      4742      4740      4743      4744      4742      4740      4743      4745
      4742      4740      4743      4746      4743      4746      4749      4750
      4743      4746      4749      4751      4743      4746      4749      4752
      4744      4743      4746      4747      4744      4743      4746      4748
      4744      4743      4746      4749      4745      4743      4746      4747
      4745      4743      4746      4748      4745      4743      4746      4749
      4746      4749      4752      4753      4746      4749      4752      4754
      4746      4749      4752      4755      4747      4746      4749      4750
      4747      4746      4749      4751      4747      4746      4749      4752
      4748      4746      4749      4750      4748      4746      4749      4751
      4748      4746      4749      4752      4749      4752      4755      4756
      4749      4752      4755      4757      4749      4752      4755      4758
      4750      4749      4752      4753      4750      4749      4752      4754
      4750      4749      4752      4755      4751      4749      4752      4753
      4751      4749      4752      4754      4751      4749      4752      4755
      4752      4755      4758      4759      4752      4755      4758      4760
      4752      4755      4758      4761      4753      4752      4755      4756
      4753      4752      4755      4757      4753      4752      4755      4758
      4754      4752      4755      4756      4754      4752      4755      4757
      4754      4752      4755      4758      4755      4758      4761      4762
      4755      4758      4761      4763      4755      4758      4761      4764
      4756      4755      4758      4759      4756      4755      4758      4760
      4756      4755      4758      4761      4757      4755      4758      4759
      4757      4755      4758      4760      4757      4755      4758      4761
      4758      4761      4764      4765      4758      4761      4764      4766
      4758      4761      4764      4767      4759      4758      4761      4762
      4759      4758      4761      4763      4759      4758      4761      4764
      4760      4758      4761      4762      4760      4758      4761      4763
      4760      4758      4761      4764      4761      4764      4767      4768
      4761      4764      4767      4769      4761      4764      4767      4770
      4762      4761      4764      4765      4762      4761      4764      4766
      4762      4761      4764      4767      4763      4761      4764      4765
      4763      4761      4764      4766      4763      4761      4764      4767
      4764      4767      4770      4771      4764      4767      4770      4772
      4764      4767      4770      4773      4765      4764      4767      4768
      4765      4764      4767      4769      4765      4764      4767      4770
      4766      4764      4767      4768      4766      4764      4767      4769
      4766      4764      4767      4770      4767      4770      4773      4774
      4767      4770      4773      4775      4767      4770      4773      4776
      4768      4767      4770      4771      4768      4767      4770      4772
      4768      4767      4770      4773      4769      4767      4770      4771
      4769      4767      4770      4772      4769      4767      4770      4773
      4770      4773      4776      4777      4770      4773      4776      4778
      4770      4773      4776      4779      4771      4770      4773      4774
      4771      4770      4773      4775      4771      4770      4773      4776
      4772      4770      4773      4774      4772      4770      4773      4775
      4772      4770      4773      4776      4774      4773      4776      4777
      4774      4773      4776      4778      4774      4773      4776      4779
      4775      4773      4776      4777      4775      4773      4776      4778
      4775      4773      4776      4779      4780      4782      4785      4786
      4780      4782      4785      4787      4780      4782      4785      4788
      4781      4780      4782      4783      4781      4780      4782      4784
      4781      4780      4782      4785      4782      4785      4788      4789
      4782      4785      4788      4790      4782      4785      4788      4791
      4783      4782      4785      4786      4783      4782      4785      4787
      4783      4782      4785      4788      4784      4782      4785      4786
      4784      4782      4785      4787      4784      4782      4785      4788
      4785      4788      4791      4792      4785      4788      4791      4793
      4785      4788      4791      4794      4786      4785      4788      4789
      4786      4785      4788      4790      4786      4785      4788      4791
      4787      4785      4788      4789      4787      4785      4788      4790
      4787      4785      4788      4791      4788      4791      4794      4795
      4788      4791      4794      4796      4788      4791      4794      4797
      4789      4788      4791      4792      4789      4788      4791      4793
      4789      4788      4791      4794      4790      4788      4791      4792
      4790      4788      4791      4793      4790      4788      4791      4794
      4791      4794      4797      4798      4791      4794      4797      4799
      4791      4794      4797      4800      4792      4791      4794      4795
      4792      4791      4794      4796      4792      4791      4794      4797
      4793      4791      4794      4795      4793      4791      4794      4796
      4793      4791      4794      4797      4794      4797      4800      4801
      4794      4797      4800      4802      4794      4797      4800      4803
      4795      4794      4797      4798      4795      4794      4797      4799
      4795      4794      4797      4800      4796      4794      4797      4798
      4796      4794      4797      4799      4796      4794      4797      4800
      4797      4800      4803      4804      4797      4800      4803      4805
      4798      4797      4800      4801      4798      4797      4800      4802
      4798      4797      4800      4803      4799      4797      4800      4801
      4799      4797      4800      4802      4799      4797      4800      4803
      4800      4803      4805      4806      4800      4803      4805      4807
      4801      4800      4803      4804      4801      4800      4803      4805
      4802      4800      4803      4804      4802      4800      4803      4805
      4803      4805      4807      4808      4803      4805      4807      4809
      4803      4805      4807      4810      4804      4803      4805      4806
      4804      4803      4805      4807      4805      4807      4810      4811
      4805      4807      4810      4812      4805      4807      4810      4813
      4806      4805      4807      4808      4806      4805      4807      4809
      4806      4805      4807      4810      4807      4810      4813      4814
      4807      4810      4813      4815      4807      4810      4813      4816
      4808      4807      4810      4811      4808      4807      4810      4812
      4808      4807      4810      4813      4809      4807      4810      4811
      4809      4807      4810      4812      4809      4807      4810      4813
      4810      4813      4816      4817      4810      4813      4816      4818
      4810      4813      4816      4819      4811      4810      4813      4814
      4811      4810      4813      4815      4811      4810      4813      4816
      4812      4810      4813      4814      4812      4810      4813      4815
      4812      4810      4813      4816      4813      4816      4819      4820
      4813      4816      4819      4821      4813      4816      4819      4822
      4814      4813      4816      4817      4814      4813      4816      4818
      4814      4813      4816      4819      4815      4813      4816      4817
      4815      4813      4816      4818      4815      4813      4816      4819
      4816      4819      4822      4823      4816      4819      4822      4824
      4816      4819      4822      4825      4817      4816      4819      4820
      4817      4816      4819      4821      4817      4816      4819      4822
      4818      4816      4819      4820      4818      4816      4819      4821
      4818      4816      4819      4822      4819      4822      4825      4826
      4819      4822      4825      4827      4819      4822      4825      4828
      4820      4819      4822      4823      4820      4819      4822      4824
      4820      4819      4822      4825      4821      4819      4822      4823
      4821      4819      4822      4824      4821      4819      4822      4825
      4822      4825      4828      4829      4822      4825      4828      4830
      4822      4825      4828      4831      4823      4822      4825      4826
      4823      4822      4825      4827      4823      4822      4825      4828
      4824      4822      4825      4826      4824      4822      4825      4827
      4824      4822      4825      4828      4826      4825      4828      4829
      4826      4825      4828      4830      4826      4825      4828      4831
      4827      4825      4828      4829      4827      4825      4828      4830
      4827      4825      4828      4831      4832      4836      4839      4840
      4832      4836      4839      4841      4832      4836      4839      4845
      4833      4832      4836      4837      4833      4832      4836      4838
      4833      4832      4836      4839      4834      4832      4836      4837
      4834      4832      4836      4838      4834      4832      4836      4839
      4835      4832      4836      4837      4835      4832      4836      4838
      4835      4832      4836      4839      4836      4839      4845      4842
      4837      4836      4839      4840      4837      4836      4839      4841
      4837      4836      4839      4845      4838      4836      4839      4840
      4838      4836      4839      4841      4838      4836      4839      4845
      4839      4845      4842      4843      4839      4845      4842      4844
      4839      4845      4842      4846      4840      4839      4845      4842
      4841      4839      4845      4842      4842      4846      4847      4848
      4842      4846      4847      4849      4842      4846      4847      4850
      4843      4842      4846      4847      4844      4842      4846      4847
      4845      4842      4846      4847      4846      4847      4850      4851
      4846      4847      4850      4852      4846      4847      4850      4858
      4847      4850      4852      4853      4847      4850      4858      4859
      4847      4850      4858      4860      4847      4850      4858      4861
      4848      4847      4850      4851      4848      4847      4850      4852
      4848      4847      4850      4858      4849      4847      4850      4851
      4849      4847      4850      4852      4849      4847      4850      4858
      4850      4852      4853      4854      4850      4852      4853      4855
      4850      4858      4861      4862      4851      4850      4852      4853
      4851      4850      4858      4859      4851      4850      4858      4860
      4851      4850      4858      4861      4852      4850      4858      4859
      4852      4850      4858      4860      4852      4850      4858      4861
      4852      4853      4855      4856      4852      4853      4855      4857
      4852      4853      4855      4867      4853      4852      4850      4858
      4853      4855      4867      4868      4853      4855      4867      4869
      4853      4855      4867      4870      4854      4853      4855      4856
      4854      4853      4855      4857      4854      4853      4855      4867
      4855      4867      4870      4871      4855      4867      4870      4872
      4855      4867      4870      4873      4856      4855      4867      4868
      4856      4855      4867      4869      4856      4855      4867      4870
      4857      4855      4867      4868      4857      4855      4867      4869
      4857      4855      4867      4870      4858      4861      4862      4863
      4858      4861      4862      4864      4859      4858      4861      4862
      4860      4858      4861      4862      4861      4862      4864      4865
      4861      4862      4864      4866      4861      4862      4864      4914
      4862      4864      4914      4915      4862      4864      4914      4916
      4862      4864      4914      4917      4863      4862      4864      4865
      4863      4862      4864      4866      4863      4862      4864      4914
      4864      4914      4917      4918      4864      4914      4917      4919
      4864      4914      4917      4920      4865      4864      4914      4915
      4865      4864      4914      4916      4865      4864      4914      4917
      4866      4864      4914      4915      4866      4864      4914      4916
      4866      4864      4914      4917      4867      4870      4873      4874
      4867      4870      4873      4875      4868      4867      4870      4871
      4868      4867      4870      4872      4868      4867      4870      4873
      4869      4867      4870      4871      4869      4867      4870      4872
      4869      4867      4870      4873      4870      4873      4875      4876
      4870      4873      4875      4877      4871      4870      4873      4874
      4871      4870      4873      4875      4872      4870      4873      4874
      4872      4870      4873      4875      4873      4875      4877      4878
      4873      4875      4877      4879      4873      4875      4877      4880
      4874      4873      4875      4876      4874      4873      4875      4877
      4875      4877      4880      4881      4875      4877      4880      4882
      4876      4875      4877      4878      4876      4875      4877      4879
      4876      4875      4877      4880      4877      4880      4882      4883
      4877      4880      4882      4884      4878      4877      4880      4881
      4878      4877      4880      4882      4879      4877      4880      4881
      4879      4877      4880      4882      4880      4882      4884      4885
      4880      4882      4884      4886      4880      4882      4884      4887
      4881      4880      4882      4883      4881      4880      4882      4884
      4882      4884      4887      4888      4882      4884      4887      4889
      4883      4882      4884      4885      4883      4882      4884      4886
      4883      4882      4884      4887      4884      4887      4889      4890
      4884      4887      4889      4891      4885      4884      4887      4888
      4885      4884      4887      4889      4886      4884      4887      4888
      4886      4884      4887      4889      4887      4889      4891      4892
      4887      4889      4891      4893      4887      4889      4891      4894
      4888      4887      4889      4890      4888      4887      4889      4891
      4889      4891      4894      4895      4889      4891      4894      4896
      4890      4889      4891      4892      4890      4889      4891      4893
      4890      4889      4891      4894      4891      4894      4896      4897
      4891      4894      4896      4898      4892      4891      4894      4895
      4892      4891      4894      4896      4893      4891      4894      4895
      4893      4891      4894      4896      4894      4896      4898      4899
      4894      4896      4898      4900      4894      4896      4898      4901
      4895      4894      4896      4897      4895      4894      4896      4898
      4896      4898      4901      4902      4896      4898      4901      4903
      4896      4898      4901      4904      4897      4896      4898      4899
      4897      4896      4898      4900      4897      4896      4898      4901
      4898      4901      4904      4905      4898      4901      4904      4906
      4898      4901      4904      4907      4899      4898      4901      4902
      4899      4898      4901      4903      4899      4898      4901      4904
      4900      4898      4901      4902      4900      4898      4901      4903
      4900      4898      4901      4904      4901      4904      4907      4908
      4901      4904      4907      4909      4901      4904      4907      4910
      4902      4901      4904      4905      4902      4901      4904      4906
      4902      4901      4904      4907      4903      4901      4904      4905
      4903      4901      4904      4906      4903      4901      4904      4907
      4904      4907      4910      4911      4904      4907      4910      4912
      4904      4907      4910      4913      4905      4904      4907      4908
      4905      4904      4907      4909      4905      4904      4907      4910
      4906      4904      4907      4908      4906      4904      4907      4909
      4906      4904      4907      4910      4908      4907      4910      4911
      4908      4907      4910      4912      4908      4907      4910      4913
      4909      4907      4910      4911      4909      4907      4910      4912
      4909      4907      4910      4913      4914      4917      4920      4921
      4914      4917      4920      4922      4914      4917      4920      4923
      4915      4914      4917      4918      4915      4914      4917      4919
      4915      4914      4917      4920      4916      4914      4917      4918
      4916      4914      4917      4919      4916      4914      4917      4920
      4917      4920      4923      4924      4917      4920      4923      4925
      4917      4920      4923      4926      4918      4917      4920      4921
      4918      4917      4920      4922      4918      4917      4920      4923
      4919      4917      4920      4921      4919      4917      4920      4922
      4919      4917      4920      4923      4920      4923      4926      4927
      4920      4923      4926      4928      4920      4923      4926      4929
      4921      4920      4923      4924      4921      4920      4923      4925
      4921      4920      4923      4926      4922      4920      4923      4924
      4922      4920      4923      4925      4922      4920      4923      4926
      4923      4926      4929      4930      4923      4926      4929      4931
      4923      4926      4929      4932      4924      4923      4926      4927
      4924      4923      4926      4928      4924      4923      4926      4929
      4925      4923      4926      4927      4925      4923      4926      4928
      4925      4923      4926      4929      4926      4929      4932      4933
      4926      4929      4932      4934      4926      4929      4932      4935
      4927      4926      4929      4930      4927      4926      4929      4931
      4927      4926      4929      4932      4928      4926      4929      4930
      4928      4926      4929      4931      4928      4926      4929      4932
      4929      4932      4935      4936      4929      4932      4935      4937
      4929      4932      4935      4938      4930      4929      4932      4933
      4930      4929      4932      4934      4930      4929      4932      4935
      4931      4929      4932      4933      4931      4929      4932      4934
      4931      4929      4932      4935      4932      4935      4938      4939
      4932      4935      4938      4940      4932      4935      4938      4941
      4933      4932      4935      4936      4933      4932      4935      4937
      4933      4932      4935      4938      4934      4932      4935      4936
      4934      4932      4935      4937      4934      4932      4935      4938
      4935      4938      4941      4942      4935      4938      4941      4943
      4935      4938      4941      4944      4936      4935      4938      4939
      4936      4935      4938      4940      4936      4935      4938      4941
      4937      4935      4938      4939      4937      4935      4938      4940
      4937      4935      4938      4941      4938      4941      4944      4945
      4938      4941      4944      4946      4938      4941      4944      4947
      4939      4938      4941      4942      4939      4938      4941      4943
      4939      4938      4941      4944      4940      4938      4941      4942
      4940      4938      4941      4943      4940      4938      4941      4944
      4941      4944      4947      4948      4941      4944      4947      4949
      4941      4944      4947      4950      4942      4941      4944      4945
      4942      4941      4944      4946      4942      4941      4944      4947
      4943      4941      4944      4945      4943      4941      4944      4946
      4943      4941      4944      4947      4944      4947      4950      4951
      4944      4947      4950      4952      4944      4947      4950      4953
      4945      4944      4947      4948      4945      4944      4947      4949
      4945      4944      4947      4950      4946      4944      4947      4948
      4946      4944      4947      4949      4946      4944      4947      4950
      4947      4950      4953      4954      4947      4950      4953      4955
      4947      4950      4953      4956      4948      4947      4950      4951
      4948      4947      4950      4952      4948      4947      4950      4953
      4949      4947      4950      4951      4949      4947      4950      4952
      4949      4947      4950      4953      4950      4953      4956      4957
      4950      4953      4956      4958      4950      4953      4956      4959
      4951      4950      4953      4954      4951      4950      4953      4955
      4951      4950      4953      4956      4952      4950      4953      4954
      4952      4950      4953      4955      4952      4950      4953      4956
      4953      4956      4959      4960      4953      4956      4959      4961
      4953      4956      4959      4962      4954      4953      4956      4957
      4954      4953      4956      4958      4954      4953      4956      4959
      4955      4953      4956      4957      4955      4953      4956      4958
      4955      4953      4956      4959      4957      4956      4959      4960
      4957      4956      4959      4961      4957      4956      4959      4962
      4958      4956      4959      4960      4958      4956      4959      4961
      4958      4956      4959      4962      4963      4976      4979      4980
      4963      4976      4979      4981      4963      4976      4979      4986
      4964      4963      4968      4969      4964      4963      4968      4970
      4964      4963      4968      4971      4964      4963      4972      4973
      4964      4963      4972      4974      4964      4963      4972      4975
      4964      4963      4976      4977      4964      4963      4976      4978
      4964      4963      4976      4979      4965      4964      4963      4968
      4965      4964      4963      4972      4965      4964      4963      4976
      4966      4964      4963      4968      4966      4964      4963      4972
      4966      4964      4963      4976      4967      4964      4963      4968
      4967      4964      4963      4972      4967      4964      4963      4976
      4968      4963      4972      4973      4968      4963      4972      4974
      4968      4963      4972      4975      4968      4963      4976      4977
      4968      4963      4976      4978      4968      4963      4976      4979
      4969      4968      4963      4972      4969      4968      4963      4976
      4970      4968      4963      4972      4970      4968      4963      4976
      4971      4968      4963      4972      4971      4968      4963      4976
      4972      4963      4976      4977      4972      4963      4976      4978
      4972      4963      4976      4979      4973      4972      4963      4976
      4974      4972      4963      4976      4975      4972      4963      4976
      4976      4979      4986      4982      4977      4976      4979      4980
      4977      4976      4979      4981      4977      4976      4979      4986
      4978      4976      4979      4980      4978      4976      4979      4981
      4978      4976      4979      4986      4979      4986      4982      4983
      4979      4986      4982      4984      4979      4986      4982      4985
      4980      4979      4986      4982      4981      4979      4986      4982
      4982      4985      4987      4988      4982      4985      4987      4989
      4982      4985      4987      4992      4983      4982      4985      4987
      4984      4982      4985      4987      4985      4987      4992      4990
      4985      4987      4992      4993      4985      4987      4992      4994
      4986      4982      4985      4987      4987      4992      4990      4991
      4987      4992      4990      5042      4987      4992      4994      4995
      4987      4992      4994      4996      4987      4992      4994      4998
      4988      4987      4992      4990      4988      4987      4992      4993
      4988      4987      4992      4994      4989      4987      4992      4990
      4989      4987      4992      4993      4989      4987      4992      4994
      4990      4992      4994      4995      4990      4992      4994      4996
      4990      4992      4994      4998      4990      5042      5044      5045
      4990      5042      5044      5046      4990      5042      5044      5047
      4991      4990      4992      4993      4991      4990      4992      4994
      4991      4990      5042      5043      4991      4990      5042      5044
      4992      4990      5042      5043      4992      4990      5042      5044
      4992      4994      4996      4997      4992      4994      4998      4999
      4992      4994      4998      5000      4993      4992      4990      5042
      4993      4992      4994      4995      4993      4992      4994      4996
      4993      4992      4994      4998      4994      4992      4990      5042
      4994      4998      5000      5001      4994      4998      5000      5002
      4995      4994      4996      4997      4995      4994      4998      4999
      4995      4994      4998      5000      4996      4994      4998      4999
      4996      4994      4998      5000      4997      4996      4994      4998
      4998      5000      5002      5003      4998      5000      5002      5004
      4998      5000      5002      5005      4999      4998      5000      5001
      4999      4998      5000      5002      5000      5002      5005      5006
      5000      5002      5005      5007      5000      5002      5005      5008
      5001      5000      5002      5003      5001      5000      5002      5004
      5001      5000      5002      5005      5002      5005      5008      5009
      5002      5005      5008      5010      5002      5005      5008      5011
      5003      5002      5005      5006      5003      5002      5005      5007
      5003      5002      5005      5008      5004      5002      5005      5006
      5004      5002      5005      5007      5004      5002      5005      5008
      5005      5008      5011      5012      5005      5008      5011      5013
      5005      5008      5011      5014      5006      5005      5008      5009
      5006      5005      5008      5010      5006      5005      5008      5011
      5007      5005      5008      5009      5007      5005      5008      5010
      5007      5005      5008      5011      5008      5011      5014      5015
      5008      5011      5014      5016      5008      5011      5014      5017
      5009      5008      5011      5012      5009      5008      5011      5013
      5009      5008      5011      5014      5010      5008      5011      5012
      5010      5008      5011      5013      5010      5008      5011      5014
      5011      5014      5017      5018      5011      5014      5017      5019
      5011      5014      5017      5020      5012      5011      5014      5015
      5012      5011      5014      5016      5012      5011      5014      5017
      5013      5011      5014      5015      5013      5011      5014      5016
      5013      5011      5014      5017      5014      5017      5020      5021
      5014      5017      5020      5022      5014      5017      5020      5023
      5015      5014      5017      5018      5015      5014      5017      5019
      5015      5014      5017      5020      5016      5014      5017      5018
      5016      5014      5017      5019      5016      5014      5017      5020
      5017      5020      5023      5024      5017      5020      5023      5025
      5017      5020      5023      5026      5018      5017      5020      5021
      5018      5017      5020      5022      5018      5017      5020      5023
      5019      5017      5020      5021      5019      5017      5020      5022
      5019      5017      5020      5023      5020      5023      5026      5027
      5020      5023      5026      5028      5020      5023      5026      5029
      5021      5020      5023      5024      5021      5020      5023      5025
      5021      5020      5023      5026      5022      5020      5023      5024
      5022      5020      5023      5025      5022      5020      5023      5026
      5023      5026      5029      5030      5023      5026      5029      5031
      5023      5026      5029      5032      5024      5023      5026      5027
      5024      5023      5026      5028      5024      5023      5026      5029
      5025      5023      5026      5027      5025      5023      5026      5028
      5025      5023      5026      5029      5026      5029      5032      5033
      5026      5029      5032      5034      5026      5029      5032      5035
      5027      5026      5029      5030      5027      5026      5029      5031
      5027      5026      5029      5032      5028      5026      5029      5030
      5028      5026      5029      5031      5028      5026      5029      5032
      5029      5032      5035      5036      5029      5032      5035      5037
      5029      5032      5035      5038      5030      5029      5032      5033
      5030      5029      5032      5034      5030      5029      5032      5035
      5031      5029      5032      5033      5031      5029      5032      5034
      5031      5029      5032      5035      5032      5035      5038      5039
      5032      5035      5038      5040      5032      5035      5038      5041
      5033      5032      5035      5036      5033      5032      5035      5037
      5033      5032      5035      5038      5034      5032      5035      5036
      5034      5032      5035      5037      5034      5032      5035      5038
      5036      5035      5038      5039      5036      5035      5038      5040
      5036      5035      5038      5041      5037      5035      5038      5039
      5037      5035      5038      5040      5037      5035      5038      5041
      5042      5044      5047      5048      5042      5044      5047      5049
      5042      5044      5047      5050      5043      5042      5044      5045
      5043      5042      5044      5046      5043      5042      5044      5047
      5044      5047      5050      5051      5044      5047      5050      5052
      5044      5047      5050      5053      5045      5044      5047      5048
      5045      5044      5047      5049      5045      5044      5047      5050
      5046      5044      5047      5048      5046      5044      5047      5049
      5046      5044      5047      5050      5047      5050      5053      5054
      5047      5050      5053      5055      5047      5050      5053      5056
      5048      5047      5050      5051      5048      5047      5050      5052
      5048      5047      5050      5053      5049      5047      5050      5051
      5049      5047      5050      5052      5049      5047      5050      5053
      5050      5053      5056      5057      5050      5053      5056      5058
      5050      5053      5056      5059      5051      5050      5053      5054
      5051      5050      5053      5055      5051      5050      5053      5056
      5052      5050      5053      5054      5052      5050      5053      5055
      5052      5050      5053      5056      5053      5056      5059      5060
      5053      5056      5059      5061      5053      5056      5059      5062
      5054      5053      5056      5057      5054      5053      5056      5058
      5054      5053      5056      5059      5055      5053      5056      5057
      5055      5053      5056      5058      5055      5053      5056      5059
      5056      5059      5062      5063      5056      5059      5062      5064
      5056      5059      5062      5065      5057      5056      5059      5060
      5057      5056      5059      5061      5057      5056      5059      5062
      5058      5056      5059      5060      5058      5056      5059      5061
      5058      5056      5059      5062      5059      5062      5065      5066
      5059      5062      5065      5067      5060      5059      5062      5063
      5060      5059      5062      5064      5060      5059      5062      5065
      5061      5059      5062      5063      5061      5059      5062      5064
      5061      5059      5062      5065      5062      5065      5067      5068
      5062      5065      5067      5069      5063      5062      5065      5066
      5063      5062      5065      5067      5064      5062      5065      5066
      5064      5062      5065      5067      5065      5067      5069      5070
      5065      5067      5069      5071      5065      5067      5069      5072
      5066      5065      5067      5068      5066      5065      5067      5069
      5067      5069      5072      5073      5067      5069      5072      5074
      5067      5069      5072      5075      5068      5067      5069      5070
      5068      5067      5069      5071      5068      5067      5069      5072
      5069      5072      5075      5076      5069      5072      5075      5077
      5069      5072      5075      5078      5070      5069      5072      5073
      5070      5069      5072      5074      5070      5069      5072      5075
      5071      5069      5072      5073      5071      5069      5072      5074
      5071      5069      5072      5075      5072      5075      5078      5079
      5072      5075      5078      5080      5072      5075      5078      5081
      5073      5072      5075      5076      5073      5072      5075      5077
      5073      5072      5075      5078      5074      5072      5075      5076
      5074      5072      5075      5077      5074      5072      5075      5078
      5075      5078      5081      5082      5075      5078      5081      5083
      5075      5078      5081      5084      5076      5075      5078      5079
      5076      5075      5078      5080      5076      5075      5078      5081
      5077      5075      5078      5079      5077      5075      5078      5080
      5077      5075      5078      5081      5078      5081      5084      5085
      5078      5081      5084      5086      5078      5081      5084      5087
      5079      5078      5081      5082      5079      5078      5081      5083
      5079      5078      5081      5084      5080      5078      5081      5082
      5080      5078      5081      5083      5080      5078      5081      5084
      5081      5084      5087      5088      5081      5084      5087      5089
      5081      5084      5087      5090      5082      5081      5084      5085
      5082      5081      5084      5086      5082      5081      5084      5087
      5083      5081      5084      5085      5083      5081      5084      5086
      5083      5081      5084      5087      5084      5087      5090      5091
      5084      5087      5090      5092      5084      5087      5090      5093
      5085      5084      5087      5088      5085      5084      5087      5089
      5085      5084      5087      5090      5086      5084      5087      5088
      5086      5084      5087      5089      5086      5084      5087      5090
      5088      5087      5090      5091      5088      5087      5090      5092
      5088      5087      5090      5093      5089      5087      5090      5091
      5089      5087      5090      5092      5089      5087      5090      5093
      5094      5098      5101      5102      5094      5098      5101      5103
      5094      5098      5101      5107      5095      5094      5098      5099
      5095      5094      5098      5100      5095      5094      5098      5101
      5096      5094      5098      5099      5096      5094      5098      5100
      5096      5094      5098      5101      5097      5094      5098      5099
      5097      5094      5098      5100      5097      5094      5098      5101
      5098      5101      5107      5104      5099      5098      5101      5102
      5099      5098      5101      5103      5099      5098      5101      5107
      5100      5098      5101      5102      5100      5098      5101      5103
      5100      5098      5101      5107      5101      5107      5104      5105
      5101      5107      5104      5106      5101      5107      5104      5108
      5102      5101      5107      5104      5103      5101      5107      5104
      5104      5108      5109      5110      5104      5108      5109      5111
      5104      5108      5109      5112      5105      5104      5108      5109
      5106      5104      5108      5109      5107      5104      5108      5109
      5108      5109      5112      5113      5108      5109      5112      5114
      5108      5109      5112      5120      5109      5112      5114      5115
      5109      5112      5120      5121      5109      5112      5120      5122
      5109      5112      5120      5123      5110      5109      5112      5113
      5110      5109      5112      5114      5110      5109      5112      5120
      5111      5109      5112      5113      5111      5109      5112      5114
      5111      5109      5112      5120      5112      5114      5115      5116
      5112      5114      5115      5117      5112      5120      5123      5124
      5113      5112      5114      5115      5113      5112      5120      5121
      5113      5112      5120      5122      5113      5112      5120      5123
      5114      5112      5120      5121      5114      5112      5120      5122
      5114      5112      5120      5123      5114      5115      5117      5118
      5114      5115      5117      5119      5114      5115      5117      5129
      5115      5114      5112      5120      5115      5117      5129      5130
      5115      5117      5129      5131      5115      5117      5129      5132
      5116      5115      5117      5118      5116      5115      5117      5119
      5116      5115      5117      5129      5117      5129      5132      5133
      5117      5129      5132      5134      5117      5129      5132      5135
      5118      5117      5129      5130      5118      5117      5129      5131
      5118      5117      5129      5132      5119      5117      5129      5130
      5119      5117      5129      5131      5119      5117      5129      5132
      5120      5123      5124      5125      5120      5123      5124      5126
      5121      5120      5123      5124      5122      5120      5123      5124
      5123      5124      5126      5127      5123      5124      5126      5128
      5123      5124      5126      5176      5124      5126      5176      5177
      5124      5126      5176      5178      5124      5126      5176      5179
      5125      5124      5126      5127      5125      5124      5126      5128
      5125      5124      5126      5176      5126      5176      5179      5180
      5126      5176      5179      5181      5126      5176      5179      5182
      5127      5126      5176      5177      5127      5126      5176      5178
      5127      5126      5176      5179      5128      5126      5176      5177
      5128      5126      5176      5178      5128      5126      5176      5179
      5129      5132      5135      5136      5129      5132      5135      5137
      5130      5129      5132      5133      5130      5129      5132      5134
      5130      5129      5132      5135      5131      5129      5132      5133
      5131      5129      5132      5134      5131      5129      5132      5135
      5132      5135      5137      5138      5132      5135      5137      5139
      5133      5132      5135      5136      5133      5132      5135      5137
      5134      5132      5135      5136      5134      5132      5135      5137
      5135      5137      5139      5140      5135      5137      5139      5141
      5135      5137      5139      5142      5136      5135      5137      5138
      5136      5135      5137      5139      5137      5139      5142      5143
      5137      5139      5142      5144      5138      5137      5139      5140
      5138      5137      5139      5141      5138      5137      5139      5142
      5139      5142      5144      5145      5139      5142      5144      5146
      5140      5139      5142      5143      5140      5139      5142      5144
      5141      5139      5142      5143      5141      5139      5142      5144
      5142      5144      5146      5147      5142      5144      5146      5148
      5142      5144      5146      5149      5143      5142      5144      5145
      5143      5142      5144      5146      5144      5146      5149      5150
      5144      5146      5149      5151      5145      5144      5146      5147
      5145      5144      5146      5148      5145      5144      5146      5149
      5146      5149      5151      5152      5146      5149      5151      5153
      5147      5146      5149      5150      5147      5146      5149      5151
      5148      5146      5149      5150      5148      5146      5149      5151
      5149      5151      5153      5154      5149      5151      5153      5155
      5149      5151      5153      5156      5150      5149      5151      5152
      5150      5149      5151      5153      5151      5153      5156      5157
      5151      5153      5156      5158      5152      5151      5153      5154
      5152      5151      5153      5155      5152      5151      5153      5156
      5153      5156      5158      5159      5153      5156      5158      5160
      5154      5153      5156      5157      5154      5153      5156      5158
      5155      5153      5156      5157      5155      5153      5156      5158
      5156      5158      5160      5161      5156      5158      5160      5162
      5156      5158      5160      5163      5157      5156      5158      5159
      5157      5156      5158      5160      5158      5160      5163      5164
      5158      5160      5163      5165      5158      5160      5163      5166
      5159      5158      5160      5161      5159      5158      5160      5162
      5159      5158      5160      5163      5160      5163      5166      5167
      5160      5163      5166      5168      5160      5163      5166      5169
      5161      5160      5163      5164      5161      5160      5163      5165
      5161      5160      5163      5166      5162      5160      5163      5164
      5162      5160      5163      5165      5162      5160      5163      5166
      5163      5166      5169      5170      5163      5166      5169      5171
      5163      5166      5169      5172      5164      5163      5166      5167
      5164      5163      5166      5168      5164      5163      5166      5169
      5165      5163      5166      5167      5165      5163      5166      5168
      5165      5163      5166      5169      5166      5169      5172      5173
      5166      5169      5172      5174      5166      5169      5172      5175
      5167      5166      5169      5170      5167      5166      5169      5171
      5167      5166      5169      5172      5168      5166      5169      5170
      5168      5166      5169      5171      5168      5166      5169      5172
      5170      5169      5172      5173      5170      5169      5172      5174
      5170      5169      5172      5175      5171      5169      5172      5173
      5171      5169      5172      5174      5171      5169      5172      5175
      5176      5179      5182      5183      5176      5179      5182      5184
      5176      5179      5182      5185      5177      5176      5179      5180
      5177      5176      5179      5181      5177      5176      5179      5182
      5178      5176      5179      5180      5178      5176      5179      5181
      5178      5176      5179      5182      5179      5182      5185      5186
      5179      5182      5185      5187      5179      5182      5185      5188
      5180      5179      5182      5183      5180      5179      5182      5184
      5180      5179      5182      5185      5181      5179      5182      5183
      5181      5179      5182      5184      5181      5179      5182      5185
      5182      5185      5188      5189      5182      5185      5188      5190
      5182      5185      5188      5191      5183      5182      5185      5186
      5183      5182      5185      5187      5183      5182      5185      5188
      5184      5182      5185      5186      5184      5182      5185      5187
      5184      5182      5185      5188      5185      5188      5191      5192
      5185      5188      5191      5193      5185      5188      5191      5194
      5186      5185      5188      5189      5186      5185      5188      5190
      5186      5185      5188      5191      5187      5185      5188      5189
      5187      5185      5188      5190      5187      5185      5188      5191
      5188      5191      5194      5195      5188      5191      5194      5196
      5188      5191      5194      5197      5189      5188      5191      5192
      5189      5188      5191      5193      5189      5188      5191      5194
      5190      5188      5191      5192      5190      5188      5191      5193
      5190      5188      5191      5194      5191      5194      5197      5198
      5191      5194      5197      5199      5191      5194      5197      5200
      5192      5191      5194      5195      5192      5191      5194      5196
      5192      5191      5194      5197      5193      5191      5194      5195
      5193      5191      5194      5196      5193      5191      5194      5197
      5194      5197      5200      5201      5194      5197      5200      5202
      5194      5197      5200      5203      5195      5194      5197      5198
      5195      5194      5197      5199      5195      5194      5197      5200
      5196      5194      5197      5198      5196      5194      5197      5199
      5196      5194      5197      5200      5197      5200      5203      5204
      5197      5200      5203      5205      5197      5200      5203      5206
      5198      5197      5200      5201      5198      5197      5200      5202
      5198      5197      5200      5203      5199      5197      5200      5201
      5199      5197      5200      5202      5199      5197      5200      5203
      5200      5203      5206      5207      5200      5203      5206      5208
      5200      5203      5206      5209      5201      5200      5203      5204
      5201      5200      5203      5205      5201      5200      5203      5206
      5202      5200      5203      5204      5202      5200      5203      5205
      5202      5200      5203      5206      5203      5206      5209      5210
      5203      5206      5209      5211      5203      5206      5209      5212
      5204      5203      5206      5207      5204      5203      5206      5208
      5204      5203      5206      5209      5205      5203      5206      5207
      5205      5203      5206      5208      5205      5203      5206      5209
      5206      5209      5212      5213      5206      5209      5212      5214
      5206      5209      5212      5215      5207      5206      5209      5210
      5207      5206      5209      5211      5207      5206      5209      5212
      5208      5206      5209      5210      5208      5206      5209      5211
      5208      5206      5209      5212      5209      5212      5215      5216
      5209      5212      5215      5217      5209      5212      5215      5218
      5210      5209      5212      5213      5210      5209      5212      5214
      5210      5209      5212      5215      5211      5209      5212      5213
      5211      5209      5212      5214      5211      5209      5212      5215
      5212      5215      5218      5219      5212      5215      5218      5220
      5212      5215      5218      5221      5213      5212      5215      5216
      5213      5212      5215      5217      5213      5212      5215      5218
      5214      5212      5215      5216      5214      5212      5215      5217
      5214      5212      5215      5218      5215      5218      5221      5222
      5215      5218      5221      5223      5215      5218      5221      5224
      5216      5215      5218      5219      5216      5215      5218      5220
      5216      5215      5218      5221      5217      5215      5218      5219
      5217      5215      5218      5220      5217      5215      5218      5221
      5219      5218      5221      5222      5219      5218      5221      5223
      5219      5218      5221      5224      5220      5218      5221      5222
      5220      5218      5221      5223      5220      5218      5221      5224
      5225      5229      5232      5233      5225      5229      5232      5263
      5225      5271      5268      5263      5225      5271      5268      5269
      5225      5271      5268      5270      5226      5225      5227      5228
      5226      5225      5229      5230      5226      5225      5229      5231
      5226      5225      5229      5232      5226      5225      5271      5268
      5226      5225      5271      5272      5226      5225      5271      5273
      5227      5225      5229      5230      5227      5225      5229      5231
      5227      5225      5229      5232      5227      5225      5271      5268
      5227      5225      5271      5272      5227      5225      5271      5273
      5228      5227      5225      5229      5228      5227      5225      5271
      5229      5225      5271      5268      5229      5225      5271      5272
      5229      5225      5271      5273      5229      5232      5233      5234
      5229      5232      5233      5235      5229      5232      5263      5261
      5229      5232      5263      5264      5229      5232      5263      5268
      5230      5229      5225      5271      5230      5229      5232      5233
      5230      5229      5232      5263      5231      5229      5225      5271
      5231      5229      5232      5233      5231      5229      5232      5263
      5232      5229      5225      5271      5232      5233      5235      5236
      5232      5233      5235      5237      5232      5233      5235      5238
      5232      5263      5261      5238      5232      5263      5261      5258
      5232      5263      5261      5262      5232      5263      5264      5265
      5232      5263      5264      5266      5232      5263      5264      5267
      5232      5263      5268      5269      5232      5263      5268      5270
      5232      5263      5268      5271      5233      5232      5263      5261
      5233      5232      5263      5264      5233      5232      5263      5268
      5233      5235      5238      5239      5233      5235      5238      5240
      5233      5235      5238      5261      5234      5233      5232      5263
      5234      5233      5235      5236      5234      5233      5235      5237
      5234      5233      5235      5238      5235      5233      5232      5263
      5235      5238      5240      5241      5235      5238      5240      5242
      5235      5238      5240      5250      5235      5238      5261      5258
      5235      5238      5261      5262      5235      5238      5261      5263
      5236      5235      5238      5239      5236      5235      5238      5240
      5236      5235      5238      5261      5237      5235      5238      5239
      5237      5235      5238      5240      5237      5235      5238      5261
      5238      5240      5242      5243      5238      5240      5242      5244
      5238      5240      5242      5245      5238      5240      5250      5248
      5238      5240      5250      5251      5238      5240      5250      5255
      5238      5261      5258      5255      5238      5261      5258      5259
      5238      5261      5258      5260      5238      5261      5263      5264
      5238      5261      5263      5268      5239      5238      5240      5241
      5239      5238      5240      5242      5239      5238      5240      5250
      5239      5238      5261      5258      5239      5238      5261      5262
      5239      5238      5261      5263      5240      5238      5261      5258
      5240      5238      5261      5262      5240      5238      5261      5263
      5240      5242      5245      5246      5240      5242      5245      5247
      5240      5242      5245      5248      5240      5250      5248      5245
      5240      5250      5248      5249      5240      5250      5248      5274
      5240      5250      5251      5252      5240      5250      5251      5253
      5240      5250      5251      5254      5240      5250      5255      5256
      5240      5250      5255      5257      5240      5250      5255      5258
      5241      5240      5238      5261      5241      5240      5242      5243
      5241      5240      5242      5244      5241      5240      5242      5245
      5241      5240      5250      5248      5241      5240      5250      5251
      5241      5240      5250      5255      5242      5240      5238      5261
      5242      5240      5250      5248      5242      5240      5250      5251
      5242      5240      5250      5255      5242      5245      5248      5249
      5242      5245      5248      5250      5242      5245      5248      5274
      5243      5242      5240      5250      5243      5242      5245      5246
      5243      5242      5245      5247      5243      5242      5245      5248
      5244      5242      5240      5250      5244      5242      5245      5246
      5244      5242      5245      5247      5244      5242      5245      5248
      5245      5242      5240      5250      5245      5248      5250      5251
      5245      5248      5250      5255      5245      5248      5274      5275
      5245      5248      5274      5276      5245      5248      5274      5280
      5246      5245      5248      5249      5246      5245      5248      5250
      5246      5245      5248      5274      5247      5245      5248      5249
      5247      5245      5248      5250      5247      5245      5248      5274
      5248      5250      5251      5252      5248      5250      5251      5253
      5248      5250      5251      5254      5248      5250      5255      5256
      5248      5250      5255      5257      5248      5250      5255      5258
      5248      5274      5276      5277      5248      5274      5276      5278
      5248      5274      5276      5279      5248      5274      5280      5281
      5248      5274      5280      5282      5248      5274      5280      5283
      5249      5248      5250      5251      5249      5248      5250      5255
      5249      5248      5274      5275      5249      5248      5274      5276
      5249      5248      5274      5280      5250      5240      5238      5261
      5250      5248      5274      5275      5250      5248      5274      5276
      5250      5248      5274      5280      5250      5255      5258      5259
      5250      5255      5258      5260      5250      5255      5258      5261
      5251      5250      5248      5274      5251      5250      5255      5256
      5251      5250      5255      5257      5251      5250      5255      5258
      5252      5251      5250      5255      5253      5251      5250      5255
      5254      5251      5250      5255      5255      5250      5248      5274
      5255      5258      5261      5262      5255      5258      5261      5263
      5256      5255      5258      5259      5256      5255      5258      5260
      5256      5255      5258      5261      5257      5255      5258      5259
      5257      5255      5258      5260      5257      5255      5258      5261
      5258      5261      5263      5264      5258      5261      5263      5268
      5259      5258      5261      5262      5259      5258      5261      5263
      5260      5258      5261      5262      5260      5258      5261      5263
      5261      5263      5264      5265      5261      5263      5264      5266
      5261      5263      5264      5267      5261      5263      5268      5269
      5261      5263      5268      5270      5261      5263      5268      5271
      5262      5261      5263      5264      5262      5261      5263      5268
      5263      5268      5271      5272      5263      5268      5271      5273
      5264      5263      5268      5269      5264      5263      5268      5270
      5264      5263      5268      5271      5265      5264      5263      5268
      5266      5264      5263      5268      5267      5264      5263      5268
      5269      5268      5271      5272      5269      5268      5271      5273
      5270      5268      5271      5272      5270      5268      5271      5273
      5274      5280      5283      5284      5274      5280      5283      5285
      5274      5280      5283      5286      5275      5274      5276      5277
      5275      5274      5276      5278      5275      5274      5276      5279
      5275      5274      5280      5281      5275      5274      5280      5282
      5275      5274      5280      5283      5276      5274      5280      5281
      5276      5274      5280      5282      5276      5274      5280      5283
      5277      5276      5274      5280      5278      5276      5274      5280
      5279      5276      5274      5280      5280      5283      5286      5287
      5280      5283      5286      5288      5280      5283      5286      5289
      5281      5280      5283      5284      5281      5280      5283      5285
      5281      5280      5283      5286      5282      5280      5283      5284
      5282      5280      5283      5285      5282      5280      5283      5286
      5283      5286      5289      5290      5283      5286      5289      5291
      5283      5286      5289      5295      5284      5283      5286      5287
      5284      5283      5286      5288      5284      5283      5286      5289
      5285      5283      5286      5287      5285      5283      5286      5288
      5285      5283      5286      5289      5286      5289      5291      5292
      5286      5289      5291      5293      5286      5289      5291      5294
      5286      5289      5295      5296      5286      5289      5295      5297
      5286      5289      5295      5298      5287      5286      5289      5290
      5287      5286      5289      5291      5287      5286      5289      5295
      5288      5286      5289      5290      5288      5286      5289      5291
      5288      5286      5289      5295      5290      5289      5291      5292
      5290      5289      5291      5293      5290      5289      5291      5294
      5290      5289      5295      5296      5290      5289      5295      5297
      5290      5289      5295      5298      5291      5289      5295      5296
      5291      5289      5295      5297      5291      5289      5295      5298
      5292      5291      5289      5295      5293      5291      5289      5295
      5294      5291      5289      5295      5299      5300      5315      5316
      5299      5300      5315      5317      5299      5300      5315      5321
      5300      5299      5303      5304      5300      5299      5303      5305
      5300      5299      5303      5306      5300      5299      5307      5308
      5300      5299      5307      5309      5300      5299      5307      5310
      5300      5299      5311      5312      5300      5299      5311      5313
      5300      5299      5311      5314      5300      5315      5321      5318
      5301      5300      5299      5303      5301      5300      5299      5307
      5301      5300      5299      5311      5301      5300      5315      5316
      5301      5300      5315      5317      5301      5300      5315      5321
      5302      5300      5299      5303      5302      5300      5299      5307
      5302      5300      5299      5311      5302      5300      5315      5316
      5302      5300      5315      5317      5302      5300      5315      5321
      5303      5299      5300      5315      5303      5299      5307      5308
      5303      5299      5307      5309      5303      5299      5307      5310
      5303      5299      5311      5312      5303      5299      5311      5313
      5303      5299      5311      5314      5304      5303      5299      5307
      5304      5303      5299      5311      5305      5303      5299      5307
      5305      5303      5299      5311      5306      5303      5299      5307
      5306      5303      5299      5311      5307      5299      5300      5315
      5307      5299      5311      5312      5307      5299      5311      5313
      5307      5299      5311      5314      5308      5307      5299      5311
      5309      5307      5299      5311      5310      5307      5299      5311
      5311      5299      5300      5315      5315      5321      5318      5319
      5315      5321      5318      5320      5315      5321      5318      5322
      5316      5315      5321      5318      5317      5315      5321      5318
      5318      5322      5323      5324      5318      5322      5323      5325
      5318      5322      5323      5326      5319      5318      5322      5323
      5320      5318      5322      5323      5321      5318      5322      5323
      5322      5323      5326      5327      5322      5323      5326      5328
      5322      5323      5326      5334      5323      5326      5328      5329
      5323      5326      5334      5335      5323      5326      5334      5336
      5323      5326      5334      5337      5324      5323      5326      5327
      5324      5323      5326      5328      5324      5323      5326      5334
      5325      5323      5326      5327      5325      5323      5326      5328
      5325      5323      5326      5334      5326      5328      5329      5330
      5326      5328      5329      5331      5326      5334      5337      5338
      5327      5326      5328      5329      5327      5326      5334      5335
      5327      5326      5334      5336      5327      5326      5334      5337
      5328      5326      5334      5335      5328      5326      5334      5336
      5328      5326      5334      5337      5328      5329      5331      5332
      5328      5329      5331      5333      5328      5329      5331      5343
      5329      5328      5326      5334      5329      5331      5343      5344
      5329      5331      5343      5345      5329      5331      5343      5346
      5330      5329      5331      5332      5330      5329      5331      5333
      5330      5329      5331      5343      5331      5343      5346      5347
      5331      5343      5346      5348      5331      5343      5346      5349
      5332      5331      5343      5344      5332      5331      5343      5345
      5332      5331      5343      5346      5333      5331      5343      5344
      5333      5331      5343      5345      5333      5331      5343      5346
      5334      5337      5338      5339      5334      5337      5338      5340
      5335      5334      5337      5338      5336      5334      5337      5338
      5337      5338      5340      5341      5337      5338      5340      5342
      5337      5338      5340      5390      5338      5340      5390      5391
      5338      5340      5390      5392      5338      5340      5390      5393
      5339      5338      5340      5341      5339      5338      5340      5342
      5339      5338      5340      5390      5340      5390      5393      5394
      5340      5390      5393      5395      5340      5390      5393      5396
      5341      5340      5390      5391      5341      5340      5390      5392
      5341      5340      5390      5393      5342      5340      5390      5391
      5342      5340      5390      5392      5342      5340      5390      5393
      5343      5346      5349      5350      5343      5346      5349      5351
      5344      5343      5346      5347      5344      5343      5346      5348
      5344      5343      5346      5349      5345      5343      5346      5347
      5345      5343      5346      5348      5345      5343      5346      5349
      5346      5349      5351      5352      5346      5349      5351      5353
      5347      5346      5349      5350      5347      5346      5349      5351
      5348      5346      5349      5350      5348      5346      5349      5351
      5349      5351      5353      5354      5349      5351      5353      5355
      5349      5351      5353      5356      5350      5349      5351      5352
      5350      5349      5351      5353      5351      5353      5356      5357
      5351      5353      5356      5358      5352      5351      5353      5354
      5352      5351      5353      5355      5352      5351      5353      5356
      5353      5356      5358      5359      5353      5356      5358      5360
      5354      5353      5356      5357      5354      5353      5356      5358
      5355      5353      5356      5357      5355      5353      5356      5358
      5356      5358      5360      5361      5356      5358      5360      5362
      5356      5358      5360      5363      5357      5356      5358      5359
      5357      5356      5358      5360      5358      5360      5363      5364
      5358      5360      5363      5365      5359      5358      5360      5361
      5359      5358      5360      5362      5359      5358      5360      5363
      5360      5363      5365      5366      5360      5363      5365      5367
      5361      5360      5363      5364      5361      5360      5363      5365
      5362      5360      5363      5364      5362      5360      5363      5365
      5363      5365      5367      5368      5363      5365      5367      5369
      5363      5365      5367      5370      5364      5363      5365      5366
      5364      5363      5365      5367      5365      5367      5370      5371
      5365      5367      5370      5372      5366      5365      5367      5368
      5366      5365      5367      5369      5366      5365      5367      5370
      5367      5370      5372      5373      5367      5370      5372      5374
      5368      5367      5370      5371      5368      5367      5370      5372
      5369      5367      5370      5371      5369      5367      5370      5372
      5370      5372      5374      5375      5370      5372      5374      5376
      5370      5372      5374      5377      5371      5370      5372      5373
      5371      5370      5372      5374      5372      5374      5377      5378
      5372      5374      5377      5379      5372      5374      5377      5380
      5373      5372      5374      5375      5373      5372      5374      5376
      5373      5372      5374      5377      5374      5377      5380      5381
      5374      5377      5380      5382      5374      5377      5380      5383
      5375      5374      5377      5378      5375      5374      5377      5379
      5375      5374      5377      5380      5376      5374      5377      5378
      5376      5374      5377      5379      5376      5374      5377      5380
      5377      5380      5383      5384      5377      5380      5383      5385
      5377      5380      5383      5386      5378      5377      5380      5381
      5378      5377      5380      5382      5378      5377      5380      5383
      5379      5377      5380      5381      5379      5377      5380      5382
      5379      5377      5380      5383      5380      5383      5386      5387
      5380      5383      5386      5388      5380      5383      5386      5389
      5381      5380      5383      5384      5381      5380      5383      5385
      5381      5380      5383      5386      5382      5380      5383      5384
      5382      5380      5383      5385      5382      5380      5383      5386
      5384      5383      5386      5387      5384      5383      5386      5388
      5384      5383      5386      5389      5385      5383      5386      5387
      5385      5383      5386      5388      5385      5383      5386      5389
      5390      5393      5396      5397      5390      5393      5396      5398
      5390      5393      5396      5399      5391      5390      5393      5394
      5391      5390      5393      5395      5391      5390      5393      5396
      5392      5390      5393      5394      5392      5390      5393      5395
      5392      5390      5393      5396      5393      5396      5399      5400
      5393      5396      5399      5401      5393      5396      5399      5402
      5394      5393      5396      5397      5394      5393      5396      5398
      5394      5393      5396      5399      5395      5393      5396      5397
      5395      5393      5396      5398      5395      5393      5396      5399
      5396      5399      5402      5403      5396      5399      5402      5404
      5396      5399      5402      5405      5397      5396      5399      5400
      5397      5396      5399      5401      5397      5396      5399      5402
      5398      5396      5399      5400      5398      5396      5399      5401
      5398      5396      5399      5402      5399      5402      5405      5406
      5399      5402      5405      5407      5399      5402      5405      5408
      5400      5399      5402      5403      5400      5399      5402      5404
      5400      5399      5402      5405      5401      5399      5402      5403
      5401      5399      5402      5404      5401      5399      5402      5405
      5402      5405      5408      5409      5402      5405      5408      5410
      5402      5405      5408      5411      5403      5402      5405      5406
      5403      5402      5405      5407      5403      5402      5405      5408
      5404      5402      5405      5406      5404      5402      5405      5407
      5404      5402      5405      5408      5405      5408      5411      5412
      5405      5408      5411      5413      5405      5408      5411      5414
      5406      5405      5408      5409      5406      5405      5408      5410
      5406      5405      5408      5411      5407      5405      5408      5409
      5407      5405      5408      5410      5407      5405      5408      5411
      5408      5411      5414      5415      5408      5411      5414      5416
      5408      5411      5414      5417      5409      5408      5411      5412
      5409      5408      5411      5413      5409      5408      5411      5414
      5410      5408      5411      5412      5410      5408      5411      5413
      5410      5408      5411      5414      5411      5414      5417      5418
      5411      5414      5417      5419      5411      5414      5417      5420
      5412      5411      5414      5415      5412      5411      5414      5416
      5412      5411      5414      5417      5413      5411      5414      5415
      5413      5411      5414      5416      5413      5411      5414      5417
      5414      5417      5420      5421      5414      5417      5420      5422
      5414      5417      5420      5423      5415      5414      5417      5418
      5415      5414      5417      5419      5415      5414      5417      5420
      5416      5414      5417      5418      5416      5414      5417      5419
      5416      5414      5417      5420      5417      5420      5423      5424
      5417      5420      5423      5425      5417      5420      5423      5426
      5418      5417      5420      5421      5418      5417      5420      5422
      5418      5417      5420      5423      5419      5417      5420      5421
      5419      5417      5420      5422      5419      5417      5420      5423
      5420      5423      5426      5427      5420      5423      5426      5428
      5420      5423      5426      5429      5421      5420      5423      5424
      5421      5420      5423      5425      5421      5420      5423      5426
      5422      5420      5423      5424      5422      5420      5423      5425
      5422      5420      5423      5426      5423      5426      5429      5430
      5423      5426      5429      5431      5423      5426      5429      5432
      5424      5423      5426      5427      5424      5423      5426      5428
      5424      5423      5426      5429      5425      5423      5426      5427
      5425      5423      5426      5428      5425      5423      5426      5429
      5426      5429      5432      5433      5426      5429      5432      5434
      5426      5429      5432      5435      5427      5426      5429      5430
      5427      5426      5429      5431      5427      5426      5429      5432
      5428      5426      5429      5430      5428      5426      5429      5431
      5428      5426      5429      5432      5429      5432      5435      5436
      5429      5432      5435      5437      5429      5432      5435      5438
      5430      5429      5432      5433      5430      5429      5432      5434
      5430      5429      5432      5435      5431      5429      5432      5433
      5431      5429      5432      5434      5431      5429      5432      5435
      5433      5432      5435      5436      5433      5432      5435      5437
      5433      5432      5435      5438      5434      5432      5435      5436
      5434      5432      5435      5437      5434      5432      5435      5438
      5439      5443      5446      5447      5439      5443      5446      5477
      5439      5485      5482      5477      5439      5485      5482      5483
      5439      5485      5482      5484      5440      5439      5441      5442
      5440      5439      5443      5444      5440      5439      5443      5445
      5440      5439      5443      5446      5440      5439      5485      5482
      5440      5439      5485      5486      5440      5439      5485      5487
      5441      5439      5443      5444      5441      5439      5443      5445
      5441      5439      5443      5446      5441      5439      5485      5482
      5441      5439      5485      5486      5441      5439      5485      5487
      5442      5441      5439      5443      5442      5441      5439      5485
      5443      5439      5485      5482      5443      5439      5485      5486
      5443      5439      5485      5487      5443      5446      5447      5448
      5443      5446      5447      5449      5443      5446      5477      5475
      5443      5446      5477      5478      5443      5446      5477      5482
      5444      5443      5439      5485      5444      5443      5446      5447
      5444      5443      5446      5477      5445      5443      5439      5485
      5445      5443      5446      5447      5445      5443      5446      5477
      5446      5443      5439      5485      5446      5447      5449      5450
      5446      5447      5449      5451      5446      5447      5449      5452
      5446      5477      5475      5452      5446      5477      5475      5472
      5446      5477      5475      5476      5446      5477      5478      5479
      5446      5477      5478      5480      5446      5477      5478      5481
      5446      5477      5482      5483      5446      5477      5482      5484
      5446      5477      5482      5485      5447      5446      5477      5475
      5447      5446      5477      5478      5447      5446      5477      5482
      5447      5449      5452      5453      5447      5449      5452      5454
      5447      5449      5452      5475      5448      5447      5446      5477
      5448      5447      5449      5450      5448      5447      5449      5451
      5448      5447      5449      5452      5449      5447      5446      5477
      5449      5452      5454      5455      5449      5452      5454      5456
      5449      5452      5454      5464      5449      5452      5475      5472
      5449      5452      5475      5476      5449      5452      5475      5477
      5450      5449      5452      5453      5450      5449      5452      5454
      5450      5449      5452      5475      5451      5449      5452      5453
      5451      5449      5452      5454      5451      5449      5452      5475
      5452      5454      5456      5457      5452      5454      5456      5458
      5452      5454      5456      5459      5452      5454      5464      5462
      5452      5454      5464      5465      5452      5454      5464      5469
      5452      5475      5472      5469      5452      5475      5472      5473
      5452      5475      5472      5474      5452      5475      5477      5478
      5452      5475      5477      5482      5453      5452      5454      5455
      5453      5452      5454      5456      5453      5452      5454      5464
      5453      5452      5475      5472      5453      5452      5475      5476
      5453      5452      5475      5477      5454      5452      5475      5472
      5454      5452      5475      5476      5454      5452      5475      5477
      5454      5456      5459      5460      5454      5456      5459      5461
      5454      5456      5459      5462      5454      5464      5462      5459
      5454      5464      5462      5463      5454      5464      5462      5488
      5454      5464      5465      5466      5454      5464      5465      5467
      5454      5464      5465      5468      5454      5464      5469      5470
      5454      5464      5469      5471      5454      5464      5469      5472
      5455      5454      5452      5475      5455      5454      5456      5457
      5455      5454      5456      5458      5455      5454      5456      5459
      5455      5454      5464      5462      5455      5454      5464      5465
      5455      5454      5464      5469      5456      5454      5452      5475
      5456      5454      5464      5462      5456      5454      5464      5465
      5456      5454      5464      5469      5456      5459      5462      5463
      5456      5459      5462      5464      5456      5459      5462      5488
      5457      5456      5454      5464      5457      5456      5459      5460
      5457      5456      5459      5461      5457      5456      5459      5462
      5458      5456      5454      5464      5458      5456      5459      5460
      5458      5456      5459      5461      5458      5456      5459      5462
      5459      5456      5454      5464      5459      5462      5464      5465
      5459      5462      5464      5469      5459      5462      5488      5489
      5459      5462      5488      5490      5459      5462      5488      5494
      5460      5459      5462      5463      5460      5459      5462      5464
      5460      5459      5462      5488      5461      5459      5462      5463
      5461      5459      5462      5464      5461      5459      5462      5488
      5462      5464      5465      5466      5462      5464      5465      5467
      5462      5464      5465      5468      5462      5464      5469      5470
      5462      5464      5469      5471      5462      5464      5469      5472
      5462      5488      5490      5491      5462      5488      5490      5492
      5462      5488      5490      5493      5462      5488      5494      5495
      5462      5488      5494      5496      5462      5488      5494      5497
      5463      5462      5464      5465      5463      5462      5464      5469
      5463      5462      5488      5489      5463      5462      5488      5490
      5463      5462      5488      5494      5464      5454      5452      5475
      5464      5462      5488      5489      5464      5462      5488      5490
      5464      5462      5488      5494      5464      5469      5472      5473
      5464      5469      5472      5474      5464      5469      5472      5475
      5465      5464      5462      5488      5465      5464      5469      5470
      5465      5464      5469      5471      5465      5464      5469      5472
      5466      5465      5464      5469      5467      5465      5464      5469
      5468      5465      5464      5469      5469      5464      5462      5488
      5469      5472      5475      5476      5469      5472      5475      5477
      5470      5469      5472      5473      5470      5469      5472      5474
      5470      5469      5472      5475      5471      5469      5472      5473
      5471      5469      5472      5474      5471      5469      5472      5475
      5472      5475      5477      5478      5472      5475      5477      5482
      5473      5472      5475      5476      5473      5472      5475      5477
      5474      5472      5475      5476      5474      5472      5475      5477
      5475      5477      5478      5479      5475      5477      5478      5480
      5475      5477      5478      5481      5475      5477      5482      5483
      5475      5477      5482      5484      5475      5477      5482      5485
      5476      5475      5477      5478      5476      5475      5477      5482
      5477      5482      5485      5486      5477      5482      5485      5487
      5478      5477      5482      5483      5478      5477      5482      5484
      5478      5477      5482      5485      5479      5478      5477      5482
      5480      5478      5477      5482      5481      5478      5477      5482
      5483      5482      5485      5486      5483      5482      5485      5487
      5484      5482      5485      5486      5484      5482      5485      5487
      5488      5494      5497      5498      5488      5494      5497      5499
      5488      5494      5497      5500      5489      5488      5490      5491
      5489      5488      5490      5492      5489      5488      5490      5493
      5489      5488      5494      5495      5489      5488      5494      5496
      5489      5488      5494      5497      5490      5488      5494      5495
      5490      5488      5494      5496      5490      5488      5494      5497
      5491      5490      5488      5494      5492      5490      5488      5494
      5493      5490      5488      5494      5494      5497      5500      5501
      5494      5497      5500      5502      5494      5497      5500      5503
      5495      5494      5497      5498      5495      5494      5497      5499
      5495      5494      5497      5500      5496      5494      5497      5498
      5496      5494      5497      5499      5496      5494      5497      5500
      5497      5500      5503      5504      5497      5500      5503      5505
      5497      5500      5503      5509      5498      5497      5500      5501
      5498      5497      5500      5502      5498      5497      5500      5503
      5499      5497      5500      5501      5499      5497      5500      5502
      5499      5497      5500      5503      5500      5503      5505      5506
      5500      5503      5505      5507      5500      5503      5505      5508
      5500      5503      5509      5510      5500      5503      5509      5511
      5500      5503      5509      5512      5501      5500      5503      5504
      5501      5500      5503      5505      5501      5500      5503      5509
      5502      5500      5503      5504      5502      5500      5503      5505
      5502      5500      5503      5509      5504      5503      5505      5506
      5504      5503      5505      5507      5504      5503      5505      5508
      5504      5503      5509      5510      5504      5503      5509      5511
      5504      5503      5509      5512      5505      5503      5509      5510
      5505      5503      5509      5511      5505      5503      5509      5512
      5506      5505      5503      5509      5507      5505      5503      5509
      5508      5505      5503      5509      5513      5517      5520      5521
      5513      5517      5520      5522      5513      5517      5520      5526
      5514      5513      5517      5518      5514      5513      5517      5519
      5514      5513      5517      5520      5515      5513      5517      5518
      5515      5513      5517      5519      5515      5513      5517      5520
      5516      5513      5517      5518      5516      5513      5517      5519
      5516      5513      5517      5520      5517      5520      5526      5523
      5518      5517      5520      5521      5518      5517      5520      5522
      5518      5517      5520      5526      5519      5517      5520      5521
      5519      5517      5520      5522      5519      5517      5520      5526
      5520      5526      5523      5524      5520      5526      5523      5525
      5520      5526      5523      5527      5521      5520      5526      5523
      5522      5520      5526      5523      5523      5527      5528      5529
      5523      5527      5528      5530      5523      5527      5528      5531
      5524      5523      5527      5528      5525      5523      5527      5528
      5526      5523      5527      5528      5527      5528      5531      5532
      5527      5528      5531      5533      5527      5528      5531      5539
      5528      5531      5533      5534      5528      5531      5539      5540
      5528      5531      5539      5541      5528      5531      5539      5542
      5529      5528      5531      5532      5529      5528      5531      5533
      5529      5528      5531      5539      5530      5528      5531      5532
      5530      5528      5531      5533      5530      5528      5531      5539
      5531      5533      5534      5535      5531      5533      5534      5536
      5531      5539      5542      5543      5532      5531      5533      5534
      5532      5531      5539      5540      5532      5531      5539      5541
      5532      5531      5539      5542      5533      5531      5539      5540
      5533      5531      5539      5541      5533      5531      5539      5542
      5533      5534      5536      5537      5533      5534      5536      5538
      5533      5534      5536      5548      5534      5533      5531      5539
      5534      5536      5548      5549      5534      5536      5548      5550
      5534      5536      5548      5551      5535      5534      5536      5537
      5535      5534      5536      5538      5535      5534      5536      5548
      5536      5548      5551      5552      5536      5548      5551      5553
      5536      5548      5551      5554      5537      5536      5548      5549
      5537      5536      5548      5550      5537      5536      5548      5551
      5538      5536      5548      5549      5538      5536      5548      5550
      5538      5536      5548      5551      5539      5542      5543      5544
      5539      5542      5543      5545      5540      5539      5542      5543
      5541      5539      5542      5543      5542      5543      5545      5546
      5542      5543      5545      5547      5542      5543      5545      5595
      5543      5545      5595      5596      5543      5545      5595      5597
      5543      5545      5595      5598      5544      5543      5545      5546
      5544      5543      5545      5547      5544      5543      5545      5595
      5545      5595      5598      5599      5545      5595      5598      5600
      5545      5595      5598      5601      5546      5545      5595      5596
      5546      5545      5595      5597      5546      5545      5595      5598
      5547      5545      5595      5596      5547      5545      5595      5597
      5547      5545      5595      5598      5548      5551      5554      5555
      5548      5551      5554      5556      5549      5548      5551      5552
      5549      5548      5551      5553      5549      5548      5551      5554
      5550      5548      5551      5552      5550      5548      5551      5553
      5550      5548      5551      5554      5551      5554      5556      5557
      5551      5554      5556      5558      5552      5551      5554      5555
      5552      5551      5554      5556      5553      5551      5554      5555
      5553      5551      5554      5556      5554      5556      5558      5559
      5554      5556      5558      5560      5554      5556      5558      5561
      5555      5554      5556      5557      5555      5554      5556      5558
      5556      5558      5561      5562      5556      5558      5561      5563
      5557      5556      5558      5559      5557      5556      5558      5560
      5557      5556      5558      5561      5558      5561      5563      5564
      5558      5561      5563      5565      5559      5558      5561      5562
      5559      5558      5561      5563      5560      5558      5561      5562
      5560      5558      5561      5563      5561      5563      5565      5566
      5561      5563      5565      5567      5561      5563      5565      5568
      5562      5561      5563      5564      5562      5561      5563      5565
      5563      5565      5568      5569      5563      5565      5568      5570
      5564      5563      5565      5566      5564      5563      5565      5567
      5564      5563      5565      5568      5565      5568      5570      5571
      5565      5568      5570      5572      5566      5565      5568      5569
      5566      5565      5568      5570      5567      5565      5568      5569
      5567      5565      5568      5570      5568      5570      5572      5573
      5568      5570      5572      5574      5568      5570      5572      5575
      5569      5568      5570      5571      5569      5568      5570      5572
      5570      5572      5575      5576      5570      5572      5575      5577
      5571      5570      5572      5573      5571      5570      5572      5574
      5571      5570      5572      5575      5572      5575      5577      5578
      5572      5575      5577      5579      5573      5572      5575      5576
      5573      5572      5575      5577      5574      5572      5575      5576
      5574      5572      5575      5577      5575      5577      5579      5580
      5575      5577      5579      5581      5575      5577      5579      5582
      5576      5575      5577      5578      5576      5575      5577      5579
      5577      5579      5582      5583      5577      5579      5582      5584
      5577      5579      5582      5585      5578      5577      5579      5580
      5578      5577      5579      5581      5578      5577      5579      5582
      5579      5582      5585      5586      5579      5582      5585      5587
      5579      5582      5585      5588      5580      5579      5582      5583
      5580      5579      5582      5584      5580      5579      5582      5585
      5581      5579      5582      5583      5581      5579      5582      5584
      5581      5579      5582      5585      5582      5585      5588      5589
      5582      5585      5588      5590      5582      5585      5588      5591
      5583      5582      5585      5586      5583      5582      5585      5587
      5583      5582      5585      5588      5584      5582      5585      5586
      5584      5582      5585      5587      5584      5582      5585      5588
      5585      5588      5591      5592      5585      5588      5591      5593
      5585      5588      5591      5594      5586      5585      5588      5589
      5586      5585      5588      5590      5586      5585      5588      5591
      5587      5585      5588      5589      5587      5585      5588      5590
      5587      5585      5588      5591      5589      5588      5591      5592
      5589      5588      5591      5593      5589      5588      5591      5594
      5590      5588      5591      5592      5590      5588      5591      5593
      5590      5588      5591      5594      5595      5598      5601      5602
      5595      5598      5601      5603      5595      5598      5601      5604
      5596      5595      5598      5599      5596      5595      5598      5600
      5596      5595      5598      5601      5597      5595      5598      5599
      5597      5595      5598      5600      5597      5595      5598      5601
      5598      5601      5604      5605      5598      5601      5604      5606
      5598      5601      5604      5607      5599      5598      5601      5602
      5599      5598      5601      5603      5599      5598      5601      5604
      5600      5598      5601      5602      5600      5598      5601      5603
      5600      5598      5601      5604      5601      5604      5607      5608
      5601      5604      5607      5609      5601      5604      5607      5610
      5602      5601      5604      5605      5602      5601      5604      5606
      5602      5601      5604      5607      5603      5601      5604      5605
      5603      5601      5604      5606      5603      5601      5604      5607
      5604      5607      5610      5611      5604      5607      5610      5612
      5604      5607      5610      5613      5605      5604      5607      5608
      5605      5604      5607      5609      5605      5604      5607      5610
      5606      5604      5607      5608      5606      5604      5607      5609
      5606      5604      5607      5610      5607      5610      5613      5614
      5607      5610      5613      5615      5607      5610      5613      5616
      5608      5607      5610      5611      5608      5607      5610      5612
      5608      5607      5610      5613      5609      5607      5610      5611
      5609      5607      5610      5612      5609      5607      5610      5613
      5610      5613      5616      5617      5610      5613      5616      5618
      5610      5613      5616      5619      5611      5610      5613      5614
      5611      5610      5613      5615      5611      5610      5613      5616
      5612      5610      5613      5614      5612      5610      5613      5615
      5612      5610      5613      5616      5613      5616      5619      5620
      5613      5616      5619      5621      5613      5616      5619      5622
      5614      5613      5616      5617      5614      5613      5616      5618
      5614      5613      5616      5619      5615      5613      5616      5617
      5615      5613      5616      5618      5615      5613      5616      5619
      5616      5619      5622      5623      5616      5619      5622      5624
      5616      5619      5622      5625      5617      5616      5619      5620
      5617      5616      5619      5621      5617      5616      5619      5622
      5618      5616      5619      5620      5618      5616      5619      5621
      5618      5616      5619      5622      5619      5622      5625      5626
      5619      5622      5625      5627      5619      5622      5625      5628
      5620      5619      5622      5623      5620      5619      5622      5624
      5620      5619      5622      5625      5621      5619      5622      5623
      5621      5619      5622      5624      5621      5619      5622      5625
      5622      5625      5628      5629      5622      5625      5628      5630
      5622      5625      5628      5631      5623      5622      5625      5626
      5623      5622      5625      5627      5623      5622      5625      5628
      5624      5622      5625      5626      5624      5622      5625      5627
      5624      5622      5625      5628      5625      5628      5631      5632
      5625      5628      5631      5633      5625      5628      5631      5634
      5626      5625      5628      5629      5626      5625      5628      5630
      5626      5625      5628      5631      5627      5625      5628      5629
      5627      5625      5628      5630      5627      5625      5628      5631
      5628      5631      5634      5635      5628      5631      5634      5636
      5628      5631      5634      5637      5629      5628      5631      5632
      5629      5628      5631      5633      5629      5628      5631      5634
      5630      5628      5631      5632      5630      5628      5631      5633
      5630      5628      5631      5634      5631      5634      5637      5638
      5631      5634      5637      5639      5631      5634      5637      5640
      5632      5631      5634      5635      5632      5631      5634      5636
      5632      5631      5634      5637      5633      5631      5634      5635
      5633      5631      5634      5636      5633      5631      5634      5637
      5634      5637      5640      5641      5634      5637      5640      5642
      5634      5637      5640      5643      5635      5634      5637      5638
      5635      5634      5637      5639      5635      5634      5637      5640
      5636      5634      5637      5638      5636      5634      5637      5639
      5636      5634      5637      5640      5638      5637      5640      5641
      5638      5637      5640      5642      5638      5637      5640      5643
      5639      5637      5640      5641      5639      5637      5640      5642
      5639      5637      5640      5643      5644      5657      5660      5661
      5644      5657      5660      5662      5644      5657      5660      5667
      5645      5644      5649      5650      5645      5644      5649      5651
      5645      5644      5649      5652      5645      5644      5653      5654
      5645      5644      5653      5655      5645      5644      5653      5656
      5645      5644      5657      5658      5645      5644      5657      5659
      5645      5644      5657      5660      5646      5645      5644      5649
      5646      5645      5644      5653      5646      5645      5644      5657
      5647      5645      5644      5649      5647      5645      5644      5653
      5647      5645      5644      5657      5648      5645      5644      5649
      5648      5645      5644      5653      5648      5645      5644      5657
      5649      5644      5653      5654      5649      5644      5653      5655
      5649      5644      5653      5656      5649      5644      5657      5658
      5649      5644      5657      5659      5649      5644      5657      5660
      5650      5649      5644      5653      5650      5649      5644      5657
      5651      5649      5644      5653      5651      5649      5644      5657
      5652      5649      5644      5653      5652      5649      5644      5657
      5653      5644      5657      5658      5653      5644      5657      5659
      5653      5644      5657      5660      5654      5653      5644      5657
      5655      5653      5644      5657      5656      5653      5644      5657
      5657      5660      5667      5663      5658      5657      5660      5661
      5658      5657      5660      5662      5658      5657      5660      5667
      5659      5657      5660      5661      5659      5657      5660      5662
      5659      5657      5660      5667      5660      5667      5663      5664
      5660      5667      5663      5665      5660      5667      5663      5666
      5661      5660      5667      5663      5662      5660      5667      5663
      5663      5666      5668      5669      5663      5666      5668      5670
      5663      5666      5668      5673      5664      5663      5666      5668
      5665      5663      5666      5668      5666      5668      5673      5671
      5666      5668      5673      5674      5666      5668      5673      5675
      5667      5663      5666      5668      5668      5673      5671      5672
      5668      5673      5671      5723      5668      5673      5675      5676
      5668      5673      5675      5677      5668      5673      5675      5679
      5669      5668      5673      5671      5669      5668      5673      5674
      5669      5668      5673      5675      5670      5668      5673      5671
      5670      5668      5673      5674      5670      5668      5673      5675
      5671      5673      5675      5676      5671      5673      5675      5677
      5671      5673      5675      5679      5671      5723      5725      5726
      5671      5723      5725      5727      5671      5723      5725      5728
      5672      5671      5673      5674      5672      5671      5673      5675
      5672      5671      5723      5724      5672      5671      5723      5725
      5673      5671      5723      5724      5673      5671      5723      5725
      5673      5675      5677      5678      5673      5675      5679      5680
      5673      5675      5679      5681      5674      5673      5671      5723
      5674      5673      5675      5676      5674      5673      5675      5677
      5674      5673      5675      5679      5675      5673      5671      5723
      5675      5679      5681      5682      5675      5679      5681      5683
      5676      5675      5677      5678      5676      5675      5679      5680
      5676      5675      5679      5681      5677      5675      5679      5680
      5677      5675      5679      5681      5678      5677      5675      5679
      5679      5681      5683      5684      5679      5681      5683      5685
      5679      5681      5683      5686      5680      5679      5681      5682
      5680      5679      5681      5683      5681      5683      5686      5687
      5681      5683      5686      5688      5681      5683      5686      5689
      5682      5681      5683      5684      5682      5681      5683      5685
      5682      5681      5683      5686      5683      5686      5689      5690
      5683      5686      5689      5691      5683      5686      5689      5692
      5684      5683      5686      5687      5684      5683      5686      5688
      5684      5683      5686      5689      5685      5683      5686      5687
      5685      5683      5686      5688      5685      5683      5686      5689
      5686      5689      5692      5693      5686      5689      5692      5694
      5686      5689      5692      5695      5687      5686      5689      5690
      5687      5686      5689      5691      5687      5686      5689      5692
      5688      5686      5689      5690      5688      5686      5689      5691
      5688      5686      5689      5692      5689      5692      5695      5696
      5689      5692      5695      5697      5689      5692      5695      5698
      5690      5689      5692      5693      5690      5689      5692      5694
      5690      5689      5692      5695      5691      5689      5692      5693
      5691      5689      5692      5694      5691      5689      5692      5695
      5692      5695      5698      5699      5692      5695      5698      5700
      5692      5695      5698      5701      5693      5692      5695      5696
      5693      5692      5695      5697      5693      5692      5695      5698
      5694      5692      5695      5696      5694      5692      5695      5697
      5694      5692      5695      5698      5695      5698      5701      5702
      5695      5698      5701      5703      5695      5698      5701      5704
      5696      5695      5698      5699      5696      5695      5698      5700
      5696      5695      5698      5701      5697      5695      5698      5699
      5697      5695      5698      5700      5697      5695      5698      5701
      5698      5701      5704      5705      5698      5701      5704      5706
      5698      5701      5704      5707      5699      5698      5701      5702
      5699      5698      5701      5703      5699      5698      5701      5704
      5700      5698      5701      5702      5700      5698      5701      5703
      5700      5698      5701      5704      5701      5704      5707      5708
      5701      5704      5707      5709      5701      5704      5707      5710
      5702      5701      5704      5705      5702      5701      5704      5706
      5702      5701      5704      5707      5703      5701      5704      5705
      5703      5701      5704      5706      5703      5701      5704      5707
      5704      5707      5710      5711      5704      5707      5710      5712
      5704      5707      5710      5713      5705      5704      5707      5708
      5705      5704      5707      5709      5705      5704      5707      5710
      5706      5704      5707      5708      5706      5704      5707      5709
      5706      5704      5707      5710      5707      5710      5713      5714
      5707      5710      5713      5715      5707      5710      5713      5716
      5708      5707      5710      5711      5708      5707      5710      5712
      5708      5707      5710      5713      5709      5707      5710      5711
      5709      5707      5710      5712      5709      5707      5710      5713
      5710      5713      5716      5717      5710      5713      5716      5718
      5710      5713      5716      5719      5711      5710      5713      5714
      5711      5710      5713      5715      5711      5710      5713      5716
      5712      5710      5713      5714      5712      5710      5713      5715
      5712      5710      5713      5716      5713      5716      5719      5720
      5713      5716      5719      5721      5713      5716      5719      5722
      5714      5713      5716      5717      5714      5713      5716      5718
      5714      5713      5716      5719      5715      5713      5716      5717
      5715      5713      5716      5718      5715      5713      5716      5719
      5717      5716      5719      5720      5717      5716      5719      5721
      5717      5716      5719      5722      5718      5716      5719      5720
      5718      5716      5719      5721      5718      5716      5719      5722
      5723      5725      5728      5729      5723      5725      5728      5730
      5723      5725      5728      5731      5724      5723      5725      5726
      5724      5723      5725      5727      5724      5723      5725      5728
      5725      5728      5731      5732      5725      5728      5731      5733
      5725      5728      5731      5734      5726      5725      5728      5729
      5726      5725      5728      5730      5726      5725      5728      5731
      5727      5725      5728      5729      5727      5725      5728      5730
      5727      5725      5728      5731      5728      5731      5734      5735
      5728      5731      5734      5736      5728      5731      5734      5737
      5729      5728      5731      5732      5729      5728      5731      5733
      5729      5728      5731      5734      5730      5728      5731      5732
      5730      5728      5731      5733      5730      5728      5731      5734
      5731      5734      5737      5738      5731      5734      5737      5739
      5731      5734      5737      5740      5732      5731      5734      5735
      5732      5731      5734      5736      5732      5731      5734      5737
      5733      5731      5734      5735      5733      5731      5734      5736
      5733      5731      5734      5737      5734      5737      5740      5741
      5734      5737      5740      5742      5734      5737      5740      5743
      5735      5734      5737      5738      5735      5734      5737      5739
      5735      5734      5737      5740      5736      5734      5737      5738
      5736      5734      5737      5739      5736      5734      5737      5740
      5737      5740      5743      5744      5737      5740      5743      5745
      5737      5740      5743      5746      5738      5737      5740      5741
      5738      5737      5740      5742      5738      5737      5740      5743
      5739      5737      5740      5741      5739      5737      5740      5742
      5739      5737      5740      5743      5740      5743      5746      5747
      5740      5743      5746      5748      5741      5740      5743      5744
      5741      5740      5743      5745      5741      5740      5743      5746
      5742      5740      5743      5744      5742      5740      5743      5745
      5742      5740      5743      5746      5743      5746      5748      5749
      5743      5746      5748      5750      5744      5743      5746      5747
      5744      5743      5746      5748      5745      5743      5746      5747
      5745      5743      5746      5748      5746      5748      5750      5751
      5746      5748      5750      5752      5746      5748      5750      5753
      5747      5746      5748      5749      5747      5746      5748      5750
      5748      5750      5753      5754      5748      5750      5753      5755
      5748      5750      5753      5756      5749      5748      5750      5751
      5749      5748      5750      5752      5749      5748      5750      5753
      5750      5753      5756      5757      5750      5753      5756      5758
      5750      5753      5756      5759      5751      5750      5753      5754
      5751      5750      5753      5755      5751      5750      5753      5756
      5752      5750      5753      5754      5752      5750      5753      5755
      5752      5750      5753      5756      5753      5756      5759      5760
      5753      5756      5759      5761      5753      5756      5759      5762
      5754      5753      5756      5757      5754      5753      5756      5758
      5754      5753      5756      5759      5755      5753      5756      5757
      5755      5753      5756      5758      5755      5753      5756      5759
      5756      5759      5762      5763      5756      5759      5762      5764
      5756      5759      5762      5765      5757      5756      5759      5760
      5757      5756      5759      5761      5757      5756      5759      5762
      5758      5756      5759      5760      5758      5756      5759      5761
      5758      5756      5759      5762      5759      5762      5765      5766
      5759      5762      5765      5767      5759      5762      5765      5768
      5760      5759      5762      5763      5760      5759      5762      5764
      5760      5759      5762      5765      5761      5759      5762      5763
      5761      5759      5762      5764      5761      5759      5762      5765
      5762      5765      5768      5769      5762      5765      5768      5770
      5762      5765      5768      5771      5763      5762      5765      5766
      5763      5762      5765      5767      5763      5762      5765      5768
      5764      5762      5765      5766      5764      5762      5765      5767
      5764      5762      5765      5768      5765      5768      5771      5772
      5765      5768      5771      5773      5765      5768      5771      5774
      5766      5765      5768      5769      5766      5765      5768      5770
      5766      5765      5768      5771      5767      5765      5768      5769
      5767      5765      5768      5770      5767      5765      5768      5771
      5769      5768      5771      5772      5769      5768      5771      5773
      5769      5768      5771      5774      5770      5768      5771      5772
      5770      5768      5771      5773      5770      5768      5771      5774
      5775      5788      5791      5792      5775      5788      5791      5793
      5775      5788      5791      5797      5776      5775      5780      5781
      5776      5775      5780      5782      5776      5775      5780      5783
      5776      5775      5784      5785      5776      5775      5784      5786
      5776      5775      5784      5787      5776      5775      5788      5789
      5776      5775      5788      5790      5776      5775      5788      5791
      5777      5776      5775      5780      5777      5776      5775      5784
      5777      5776      5775      5788      5778      5776      5775      5780
      5778      5776      5775      5784      5778      5776      5775      5788
      5779      5776      5775      5780      5779      5776      5775      5784
      5779      5776      5775      5788      5780      5775      5784      5785
      5780      5775      5784      5786      5780      5775      5784      5787
      5780      5775      5788      5789      5780      5775      5788      5790
      5780      5775      5788      5791      5781      5780      5775      5784
      5781      5780      5775      5788      5782      5780      5775      5784
      5782      5780      5775      5788      5783      5780      5775      5784
      5783      5780      5775      5788      5784      5775      5788      5789
      5784      5775      5788      5790      5784      5775      5788      5791
      5785      5784      5775      5788      5786      5784      5775      5788
      5787      5784      5775      5788      5788      5791      5797      5794
      5789      5788      5791      5792      5789      5788      5791      5793
      5789      5788      5791      5797      5790      5788      5791      5792
      5790      5788      5791      5793      5790      5788      5791      5797
      5791      5797      5794      5795      5791      5797      5794      5796
      5791      5797      5794      5798      5792      5791      5797      5794
      5793      5791      5797      5794      5794      5798      5799      5800
      5794      5798      5799      5801      5794      5798      5799      5802
      5795      5794      5798      5799      5796      5794      5798      5799
      5797      5794      5798      5799      5798      5799      5802      5803
      5798      5799      5802      5804      5798      5799      5802      5810
      5799      5802      5804      5805      5799      5802      5810      5811
      5799      5802      5810      5812      5799      5802      5810      5813
      5800      5799      5802      5803      5800      5799      5802      5804
      5800      5799      5802      5810      5801      5799      5802      5803
      5801      5799      5802      5804      5801      5799      5802      5810
      5802      5804      5805      5806      5802      5804      5805      5807
      5802      5810      5813      5814      5803      5802      5804      5805
      5803      5802      5810      5811      5803      5802      5810      5812
      5803      5802      5810      5813      5804      5802      5810      5811
      5804      5802      5810      5812      5804      5802      5810      5813
      5804      5805      5807      5808      5804      5805      5807      5809
      5804      5805      5807      5819      5805      5804      5802      5810
      5805      5807      5819      5820      5805      5807      5819      5821
      5805      5807      5819      5822      5806      5805      5807      5808
      5806      5805      5807      5809      5806      5805      5807      5819
      5807      5819      5822      5823      5807      5819      5822      5824
      5807      5819      5822      5825      5808      5807      5819      5820
      5808      5807      5819      5821      5808      5807      5819      5822
      5809      5807      5819      5820      5809      5807      5819      5821
      5809      5807      5819      5822      5810      5813      5814      5815
      5810      5813      5814      5816      5811      5810      5813      5814
      5812      5810      5813      5814      5813      5814      5816      5817
      5813      5814      5816      5818      5813      5814      5816      5864
      5814      5816      5864      5865      5814      5816      5864      5866
      5814      5816      5864      5867      5815      5814      5816      5817
      5815      5814      5816      5818      5815      5814      5816      5864
      5816      5864      5867      5868      5816      5864      5867      5869
      5816      5864      5867      5870      5817      5816      5864      5865
      5817      5816      5864      5866      5817      5816      5864      5867
      5818      5816      5864      5865      5818      5816      5864      5866
      5818      5816      5864      5867      5819      5822      5825      5826
      5819      5822      5825      5827      5819      5822      5825      5828
      5820      5819      5822      5823      5820      5819      5822      5824
      5820      5819      5822      5825      5821      5819      5822      5823
      5821      5819      5822      5824      5821      5819      5822      5825
      5822      5825      5828      5829      5822      5825      5828      5830
      5822      5825      5828      5831      5823      5822      5825      5826
      5823      5822      5825      5827      5823      5822      5825      5828
      5824      5822      5825      5826      5824      5822      5825      5827
      5824      5822      5825      5828      5825      5828      5831      5832
      5825      5828      5831      5833      5825      5828      5831      5834
      5826      5825      5828      5829      5826      5825      5828      5830
      5826      5825      5828      5831      5827      5825      5828      5829
      5827      5825      5828      5830      5827      5825      5828      5831
      5828      5831      5834      5835      5828      5831      5834      5836
      5828      5831      5834      5837      5829      5828      5831      5832
      5829      5828      5831      5833      5829      5828      5831      5834
      5830      5828      5831      5832      5830      5828      5831      5833
      5830      5828      5831      5834      5831      5834      5837      5838
      5831      5834      5837      5839      5832      5831      5834      5835
      5832      5831      5834      5836      5832      5831      5834      5837
      5833      5831      5834      5835      5833      5831      5834      5836
      5833      5831      5834      5837      5834      5837      5839      5840
      5834      5837      5839      5841      5835      5834      5837      5838
      5835      5834      5837      5839      5836      5834      5837      5838
      5836      5834      5837      5839      5837      5839      5841      5842
      5837      5839      5841      5843      5837      5839      5841      5844
      5838      5837      5839      5840      5838      5837      5839      5841
      5839      5841      5844      5845      5839      5841      5844      5846
      5840      5839      5841      5842      5840      5839      5841      5843
      5840      5839      5841      5844      5841      5844      5846      5847
      5841      5844      5846      5848      5842      5841      5844      5845
      5842      5841      5844      5846      5843      5841      5844      5845
      5843      5841      5844      5846      5844      5846      5848      5849
      5844      5846      5848      5850      5844      5846      5848      5851
      5845      5844      5846      5847      5845      5844      5846      5848
      5846      5848      5851      5852      5846      5848      5851      5853
      5846      5848      5851      5854      5847      5846      5848      5849
      5847      5846      5848      5850      5847      5846      5848      5851
      5848      5851      5854      5855      5848      5851      5854      5856
      5848      5851      5854      5857      5849      5848      5851      5852
      5849      5848      5851      5853      5849      5848      5851      5854
      5850      5848      5851      5852      5850      5848      5851      5853
      5850      5848      5851      5854      5851      5854      5857      5858
      5851      5854      5857      5859      5851      5854      5857      5860
      5852      5851      5854      5855      5852      5851      5854      5856
      5852      5851      5854      5857      5853      5851      5854      5855
      5853      5851      5854      5856      5853      5851      5854      5857
      5854      5857      5860      5861      5854      5857      5860      5862
      5854      5857      5860      5863      5855      5854      5857      5858
      5855      5854      5857      5859      5855      5854      5857      5860
      5856      5854      5857      5858      5856      5854      5857      5859
      5856      5854      5857      5860      5858      5857      5860      5861
      5858      5857      5860      5862      5858      5857      5860      5863
      5859      5857      5860      5861      5859      5857      5860      5862
      5859      5857      5860      5863      5864      5867      5870      5871
      5864      5867      5870      5872      5864      5867      5870      5873
      5865      5864      5867      5868      5865      5864      5867      5869
      5865      5864      5867      5870      5866      5864      5867      5868
      5866      5864      5867      5869      5866      5864      5867      5870
      5867      5870      5873      5874      5867      5870      5873      5875
      5867      5870      5873      5876      5868      5867      5870      5871
      5868      5867      5870      5872      5868      5867      5870      5873
      5869      5867      5870      5871      5869      5867      5870      5872
      5869      5867      5870      5873      5870      5873      5876      5877
      5870      5873      5876      5878      5870      5873      5876      5879
      5871      5870      5873      5874      5871      5870      5873      5875
      5871      5870      5873      5876      5872      5870      5873      5874
      5872      5870      5873      5875      5872      5870      5873      5876
      5873      5876      5879      5880      5873      5876      5879      5881
      5873      5876      5879      5882      5874      5873      5876      5877
      5874      5873      5876      5878      5874      5873      5876      5879
      5875      5873      5876      5877      5875      5873      5876      5878
      5875      5873      5876      5879      5876      5879      5882      5883
      5876      5879      5882      5884      5876      5879      5882      5885
      5877      5876      5879      5880      5877      5876      5879      5881
      5877      5876      5879      5882      5878      5876      5879      5880
      5878      5876      5879      5881      5878      5876      5879      5882
      5879      5882      5885      5886      5879      5882      5885      5887
      5879      5882      5885      5888      5880      5879      5882      5883
      5880      5879      5882      5884      5880      5879      5882      5885
      5881      5879      5882      5883      5881      5879      5882      5884
      5881      5879      5882      5885      5882      5885      5888      5889
      5882      5885      5888      5890      5882      5885      5888      5891
      5883      5882      5885      5886      5883      5882      5885      5887
      5883      5882      5885      5888      5884      5882      5885      5886
      5884      5882      5885      5887      5884      5882      5885      5888
      5885      5888      5891      5892      5885      5888      5891      5893
      5885      5888      5891      5894      5886      5885      5888      5889
      5886      5885      5888      5890      5886      5885      5888      5891
      5887      5885      5888      5889      5887      5885      5888      5890
      5887      5885      5888      5891      5888      5891      5894      5895
      5888      5891      5894      5896      5888      5891      5894      5897
      5889      5888      5891      5892      5889      5888      5891      5893
      5889      5888      5891      5894      5890      5888      5891      5892
      5890      5888      5891      5893      5890      5888      5891      5894
      5891      5894      5897      5898      5891      5894      5897      5899
      5891      5894      5897      5900      5892      5891      5894      5895
      5892      5891      5894      5896      5892      5891      5894      5897
      5893      5891      5894      5895      5893      5891      5894      5896
      5893      5891      5894      5897      5894      5897      5900      5901
      5894      5897      5900      5902      5894      5897      5900      5903
      5895      5894      5897      5898      5895      5894      5897      5899
      5895      5894      5897      5900      5896      5894      5897      5898
      5896      5894      5897      5899      5896      5894      5897      5900
      5897      5900      5903      5904      5897      5900      5903      5905
      5897      5900      5903      5906      5898      5897      5900      5901
      5898      5897      5900      5902      5898      5897      5900      5903
      5899      5897      5900      5901      5899      5897      5900      5902
      5899      5897      5900      5903      5900      5903      5906      5907
      5900      5903      5906      5908      5900      5903      5906      5909
      5901      5900      5903      5904      5901      5900      5903      5905
      5901      5900      5903      5906      5902      5900      5903      5904
      5902      5900      5903      5905      5902      5900      5903      5906
      5903      5906      5909      5910      5903      5906      5909      5911
      5903      5906      5909      5912      5904      5903      5906      5907
      5904      5903      5906      5908      5904      5903      5906      5909
      5905      5903      5906      5907      5905      5903      5906      5908
      5905      5903      5906      5909      5907      5906      5909      5910
      5907      5906      5909      5911      5907      5906      5909      5912
      5908      5906      5909      5910      5908      5906      5909      5911
      5908      5906      5909      5912      5913      5917      5920      5921
      5913      5917      5920      5951      5913      5959      5956      5951
      5913      5959      5956      5957      5913      5959      5956      5958
      5914      5913      5915      5916      5914      5913      5917      5918
      5914      5913      5917      5919      5914      5913      5917      5920
      5914      5913      5959      5956      5914      5913      5959      5960
      5914      5913      5959      5961      5915      5913      5917      5918
      5915      5913      5917      5919      5915      5913      5917      5920
      5915      5913      5959      5956      5915      5913      5959      5960
      5915      5913      5959      5961      5916      5915      5913      5917
      5916      5915      5913      5959      5917      5913      5959      5956
      5917      5913      5959      5960      5917      5913      5959      5961
      5917      5920      5921      5922      5917      5920      5921      5923
      5917      5920      5951      5949      5917      5920      5951      5952
      5917      5920      5951      5956      5918      5917      5913      5959
      5918      5917      5920      5921      5918      5917      5920      5951
      5919      5917      5913      5959      5919      5917      5920      5921
      5919      5917      5920      5951      5920      5917      5913      5959
      5920      5921      5923      5924      5920      5921      5923      5925
      5920      5921      5923      5926      5920      5951      5949      5926
      5920      5951      5949      5946      5920      5951      5949      5950
      5920      5951      5952      5953      5920      5951      5952      5954
      5920      5951      5952      5955      5920      5951      5956      5957
      5920      5951      5956      5958      5920      5951      5956      5959
      5921      5920      5951      5949      5921      5920      5951      5952
      5921      5920      5951      5956      5921      5923      5926      5927
      5921      5923      5926      5928      5921      5923      5926      5949
      5922      5921      5920      5951      5922      5921      5923      5924
      5922      5921      5923      5925      5922      5921      5923      5926
      5923      5921      5920      5951      5923      5926      5928      5929
      5923      5926      5928      5930      5923      5926      5928      5938
      5923      5926      5949      5946      5923      5926      5949      5950
      5923      5926      5949      5951      5924      5923      5926      5927
      5924      5923      5926      5928      5924      5923      5926      5949
      5925      5923      5926      5927      5925      5923      5926      5928
      5925      5923      5926      5949      5926      5928      5930      5931
      5926      5928      5930      5932      5926      5928      5930      5933
      5926      5928      5938      5936      5926      5928      5938      5939
      5926      5928      5938      5943      5926      5949      5946      5943
      5926      5949      5946      5947      5926      5949      5946      5948
      5926      5949      5951      5952      5926      5949      5951      5956
      5927      5926      5928      5929      5927      5926      5928      5930
      5927      5926      5928      5938      5927      5926      5949      5946
      5927      5926      5949      5950      5927      5926      5949      5951
      5928      5926      5949      5946      5928      5926      5949      5950
      5928      5926      5949      5951      5928      5930      5933      5934
      5928      5930      5933      5935      5928      5930      5933      5936
      5928      5938      5936      5933      5928      5938      5936      5937
      5928      5938      5936      5962      5928      5938      5939      5940
      5928      5938      5939      5941      5928      5938      5939      5942
      5928      5938      5943      5944      5928      5938      5943      5945
      5928      5938      5943      5946      5929      5928      5926      5949
      5929      5928      5930      5931      5929      5928      5930      5932
      5929      5928      5930      5933      5929      5928      5938      5936
      5929      5928      5938      5939      5929      5928      5938      5943
      5930      5928      5926      5949      5930      5928      5938      5936
      5930      5928      5938      5939      5930      5928      5938      5943
      5930      5933      5936      5937      5930      5933      5936      5938
      5930      5933      5936      5962      5931      5930      5928      5938
      5931      5930      5933      5934      5931      5930      5933      5935
      5931      5930      5933      5936      5932      5930      5928      5938
      5932      5930      5933      5934      5932      5930      5933      5935
      5932      5930      5933      5936      5933      5930      5928      5938
      5933      5936      5938      5939      5933      5936      5938      5943
      5933      5936      5962      5963      5933      5936      5962      5964
      5933      5936      5962      5968      5934      5933      5936      5937
      5934      5933      5936      5938      5934      5933      5936      5962
      5935      5933      5936      5937      5935      5933      5936      5938
      5935      5933      5936      5962      5936      5938      5939      5940
      5936      5938      5939      5941      5936      5938      5939      5942
      5936      5938      5943      5944      5936      5938      5943      5945
      5936      5938      5943      5946      5936      5962      5964      5965
      5936      5962      5964      5966      5936      5962      5964      5967
      5936      5962      5968      5969      5936      5962      5968      5970
      5936      5962      5968      5971      5937      5936      5938      5939
      5937      5936      5938      5943      5937      5936      5962      5963
      5937      5936      5962      5964      5937      5936      5962      5968
      5938      5928      5926      5949      5938      5936      5962      5963
      5938      5936      5962      5964      5938      5936      5962      5968
      5938      5943      5946      5947      5938      5943      5946      5948
      5938      5943      5946      5949      5939      5938      5936      5962
      5939      5938      5943      5944      5939      5938      5943      5945
      5939      5938      5943      5946      5940      5939      5938      5943
      5941      5939      5938      5943      5942      5939      5938      5943
      5943      5938      5936      5962      5943      5946      5949      5950
      5943      5946      5949      5951      5944      5943      5946      5947
      5944      5943      5946      5948      5944      5943      5946      5949
      5945      5943      5946      5947      5945      5943      5946      5948
      5945      5943      5946      5949      5946      5949      5951      5952
      5946      5949      5951      5956      5947      5946      5949      5950
      5947      5946      5949      5951      5948      5946      5949      5950
      5948      5946      5949      5951      5949      5951      5952      5953
      5949      5951      5952      5954      5949      5951      5952      5955
      5949      5951      5956      5957      5949      5951      5956      5958
      5949      5951      5956      5959      5950      5949      5951      5952
      5950      5949      5951      5956      5951      5956      5959      5960
      5951      5956      5959      5961      5952      5951      5956      5957
      5952      5951      5956      5958      5952      5951      5956      5959
      5953      5952      5951      5956      5954      5952      5951      5956
      5955      5952      5951      5956      5957      5956      5959      5960
      5957      5956      5959      5961      5958      5956      5959      5960
      5958      5956      5959      5961      5962      5968      5971      5972
      5962      5968      5971      5973      5962      5968      5971      5974
      5963      5962      5964      5965      5963      5962      5964      5966
      5963      5962      5964      5967      5963      5962      5968      5969
      5963      5962      5968      5970      5963      5962      5968      5971
      5964      5962      5968      5969      5964      5962      5968      5970
      5964      5962      5968      5971      5965      5964      5962      5968
      5966      5964      5962      5968      5967      5964      5962      5968
      5968      5971      5974      5975      5968      5971      5974      5976
      5968      5971      5974      5977      5969      5968      5971      5972
      5969      5968      5971      5973      5969      5968      5971      5974
      5970      5968      5971      5972      5970      5968      5971      5973
      5970      5968      5971      5974      5971      5974      5977      5978
      5971      5974      5977      5979      5971      5974      5977      5983
      5972      5971      5974      5975      5972      5971      5974      5976
      5972      5971      5974      5977      5973      5971      5974      5975
      5973      5971      5974      5976      5973      5971      5974      5977
      5974      5977      5979      5980      5974      5977      5979      5981
      5974      5977      5979      5982      5974      5977      5983      5984
      5974      5977      5983      5985      5974      5977      5983      5986
      5975      5974      5977      5978      5975      5974      5977      5979
      5975      5974      5977      5983      5976      5974      5977      5978
      5976      5974      5977      5979      5976      5974      5977      5983
      5978      5977      5979      5980      5978      5977      5979      5981
      5978      5977      5979      5982      5978      5977      5983      5984
      5978      5977      5983      5985      5978      5977      5983      5986
      5979      5977      5983      5984      5979      5977      5983      5985
      5979      5977      5983      5986      5980      5979      5977      5983
      5981      5979      5977      5983      5982      5979      5977      5983
      5987      5988      6003      6004      5987      5988      6003      6005
      5987      5988      6003      6009      5988      5987      5991      5992
      5988      5987      5991      5993      5988      5987      5991      5994
      5988      5987      5995      5996      5988      5987      5995      5997
      5988      5987      5995      5998      5988      5987      5999      6000
      5988      5987      5999      6001      5988      5987      5999      6002
      5988      6003      6009      6006      5989      5988      5987      5991
      5989      5988      5987      5995      5989      5988      5987      5999
      5989      5988      6003      6004      5989      5988      6003      6005
      5989      5988      6003      6009      5990      5988      5987      5991
      5990      5988      5987      5995      5990      5988      5987      5999
      5990      5988      6003      6004      5990      5988      6003      6005
      5990      5988      6003      6009      5991      5987      5988      6003
      5991      5987      5995      5996      5991      5987      5995      5997
      5991      5987      5995      5998      5991      5987      5999      6000
      5991      5987      5999      6001      5991      5987      5999      6002
      5992      5991      5987      5995      5992      5991      5987      5999
      5993      5991      5987      5995      5993      5991      5987      5999
      5994      5991      5987      5995      5994      5991      5987      5999
      5995      5987      5988      6003      5995      5987      5999      6000
      5995      5987      5999      6001      5995      5987      5999      6002
      5996      5995      5987      5999      5997      5995      5987      5999
      5998      5995      5987      5999      5999      5987      5988      6003
      6003      6009      6006      6007      6003      6009      6006      6008
      6003      6009      6006      6010      6004      6003      6009      6006
      6005      6003      6009      6006      6006      6010      6011      6012
      6006      6010      6011      6013      6006      6010      6011      6014
      6007      6006      6010      6011      6008      6006      6010      6011
      6009      6006      6010      6011      6010      6011      6014      6015
      6010      6011      6014      6016      6010      6011      6014      6022
      6011      6014      6016      6017      6011      6014      6022      6023
      6011      6014      6022      6024      6011      6014      6022      6025
      6012      6011      6014      6015      6012      6011      6014      6016
      6012      6011      6014      6022      6013      6011      6014      6015
      6013      6011      6014      6016      6013      6011      6014      6022
      6014      6016      6017      6018      6014      6016      6017      6019
      6014      6022      6025      6026      6015      6014      6016      6017
      6015      6014      6022      6023      6015      6014      6022      6024
      6015      6014      6022      6025      6016      6014      6022      6023
      6016      6014      6022      6024      6016      6014      6022      6025
      6016      6017      6019      6020      6016      6017      6019      6021
      6016      6017      6019      6031      6017      6016      6014      6022
      6017      6019      6031      6032      6017      6019      6031      6033
      6017      6019      6031      6034      6018      6017      6019      6020
      6018      6017      6019      6021      6018      6017      6019      6031
      6019      6031      6034      6035      6019      6031      6034      6036
      6019      6031      6034      6037      6020      6019      6031      6032
      6020      6019      6031      6033      6020      6019      6031      6034
      6021      6019      6031      6032      6021      6019      6031      6033
      6021      6019      6031      6034      6022      6025      6026      6027
      6022      6025      6026      6028      6023      6022      6025      6026
      6024      6022      6025      6026      6025      6026      6028      6029
      6025      6026      6028      6030      6025      6026      6028      6078
      6026      6028      6078      6079      6026      6028      6078      6080
      6026      6028      6078      6081      6027      6026      6028      6029
      6027      6026      6028      6030      6027      6026      6028      6078
      6028      6078      6081      6082      6028      6078      6081      6083
      6028      6078      6081      6084      6029      6028      6078      6079
      6029      6028      6078      6080      6029      6028      6078      6081
      6030      6028      6078      6079      6030      6028      6078      6080
      6030      6028      6078      6081      6031      6034      6037      6038
      6031      6034      6037      6039      6032      6031      6034      6035
      6032      6031      6034      6036      6032      6031      6034      6037
      6033      6031      6034      6035      6033      6031      6034      6036
      6033      6031      6034      6037      6034      6037      6039      6040
      6034      6037      6039      6041      6035      6034      6037      6038
      6035      6034      6037      6039      6036      6034      6037      6038
      6036      6034      6037      6039      6037      6039      6041      6042
      6037      6039      6041      6043      6037      6039      6041      6044
      6038      6037      6039      6040      6038      6037      6039      6041
      6039      6041      6044      6045      6039      6041      6044      6046
      6040      6039      6041      6042      6040      6039      6041      6043
      6040      6039      6041      6044      6041      6044      6046      6047
      6041      6044      6046      6048      6042      6041      6044      6045
      6042      6041      6044      6046      6043      6041      6044      6045
      6043      6041      6044      6046      6044      6046      6048      6049
      6044      6046      6048      6050      6044      6046      6048      6051
      6045      6044      6046      6047      6045      6044      6046      6048
      6046      6048      6051      6052      6046      6048      6051      6053
      6047      6046      6048      6049      6047      6046      6048      6050
      6047      6046      6048      6051      6048      6051      6053      6054
      6048      6051      6053      6055      6049      6048      6051      6052
      6049      6048      6051      6053      6050      6048      6051      6052
      6050      6048      6051      6053      6051      6053      6055      6056
      6051      6053      6055      6057      6051      6053      6055      6058
      6052      6051      6053      6054      6052      6051      6053      6055
      6053      6055      6058      6059      6053      6055      6058      6060
      6054      6053      6055      6056      6054      6053      6055      6057
      6054      6053      6055      6058      6055      6058      6060      6061
      6055      6058      6060      6062      6056      6055      6058      6059
      6056      6055      6058      6060      6057      6055      6058      6059
      6057      6055      6058      6060      6058      6060      6062      6063
      6058      6060      6062      6064      6058      6060      6062      6065
      6059      6058      6060      6061      6059      6058      6060      6062
      6060      6062      6065      6066      6060      6062      6065      6067
      6060      6062      6065      6068      6061      6060      6062      6063
      6061      6060      6062      6064      6061      6060      6062      6065
      6062      6065      6068      6069      6062      6065      6068      6070
      6062      6065      6068      6071      6063      6062      6065      6066
      6063      6062      6065      6067      6063      6062      6065      6068
      6064      6062      6065      6066      6064      6062      6065      6067
      6064      6062      6065      6068      6065      6068      6071      6072
      6065      6068      6071      6073      6065      6068      6071      6074
      6066      6065      6068      6069      6066      6065      6068      6070
      6066      6065      6068      6071      6067      6065      6068      6069
      6067      6065      6068      6070      6067      6065      6068      6071
      6068      6071      6074      6075      6068      6071      6074      6076
      6068      6071      6074      6077      6069      6068      6071      6072
      6069      6068      6071      6073      6069      6068      6071      6074
      6070      6068      6071      6072      6070      6068      6071      6073
      6070      6068      6071      6074      6072      6071      6074      6075
      6072      6071      6074      6076      6072      6071      6074      6077
      6073      6071      6074      6075      6073      6071      6074      6076
      6073      6071      6074      6077      6078      6081      6084      6085
      6078      6081      6084      6086      6078      6081      6084      6087
      6079      6078      6081      6082      6079      6078      6081      6083
      6079      6078      6081      6084      6080      6078      6081      6082
      6080      6078      6081      6083      6080      6078      6081      6084
      6081      6084      6087      6088      6081      6084      6087      6089
      6081      6084      6087      6090      6082      6081      6084      6085
      6082      6081      6084      6086      6082      6081      6084      6087
      6083      6081      6084      6085      6083      6081      6084      6086
      6083      6081      6084      6087      6084      6087      6090      6091
      6084      6087      6090      6092      6084      6087      6090      6093
      6085      6084      6087      6088      6085      6084      6087      6089
      6085      6084      6087      6090      6086      6084      6087      6088
      6086      6084      6087      6089      6086      6084      6087      6090
      6087      6090      6093      6094      6087      6090      6093      6095
      6087      6090      6093      6096      6088      6087      6090      6091
      6088      6087      6090      6092      6088      6087      6090      6093
      6089      6087      6090      6091      6089      6087      6090      6092
      6089      6087      6090      6093      6090      6093      6096      6097
      6090      6093      6096      6098      6090      6093      6096      6099
      6091      6090      6093      6094      6091      6090      6093      6095
      6091      6090      6093      6096      6092      6090      6093      6094
      6092      6090      6093      6095      6092      6090      6093      6096
      6093      6096      6099      6100      6093      6096      6099      6101
      6093      6096      6099      6102      6094      6093      6096      6097
      6094      6093      6096      6098      6094      6093      6096      6099
      6095      6093      6096      6097      6095      6093      6096      6098
      6095      6093      6096      6099      6096      6099      6102      6103
      6096      6099      6102      6104      6096      6099      6102      6105
      6097      6096      6099      6100      6097      6096      6099      6101
      6097      6096      6099      6102      6098      6096      6099      6100
      6098      6096      6099      6101      6098      6096      6099      6102
      6099      6102      6105      6106      6099      6102      6105      6107
      6099      6102      6105      6108      6100      6099      6102      6103
      6100      6099      6102      6104      6100      6099      6102      6105
      6101      6099      6102      6103      6101      6099      6102      6104
      6101      6099      6102      6105      6102      6105      6108      6109
      6102      6105      6108      6110      6102      6105      6108      6111
      6103      6102      6105      6106      6103      6102      6105      6107
      6103      6102      6105      6108      6104      6102      6105      6106
      6104      6102      6105      6107      6104      6102      6105      6108
      6105      6108      6111      6112      6105      6108      6111      6113
      6105      6108      6111      6114      6106      6105      6108      6109
      6106      6105      6108      6110      6106      6105      6108      6111
      6107      6105      6108      6109      6107      6105      6108      6110
      6107      6105      6108      6111      6108      6111      6114      6115
      6108      6111      6114      6116      6108      6111      6114      6117
      6109      6108      6111      6112      6109      6108      6111      6113
      6109      6108      6111      6114      6110      6108      6111      6112
      6110      6108      6111      6113      6110      6108      6111      6114
      6111      6114      6117      6118      6111      6114      6117      6119
      6111      6114      6117      6120      6112      6111      6114      6115
      6112      6111      6114      6116      6112      6111      6114      6117
      6113      6111      6114      6115      6113      6111      6114      6116
      6113      6111      6114      6117      6114      6117      6120      6121
      6114      6117      6120      6122      6114      6117      6120      6123
      6115      6114      6117      6118      6115      6114      6117      6119
      6115      6114      6117      6120      6116      6114      6117      6118
      6116      6114      6117      6119      6116      6114      6117      6120
      6117      6120      6123      6124      6117      6120      6123      6125
      6117      6120      6123      6126      6118      6117      6120      6121
      6118      6117      6120      6122      6118      6117      6120      6123
      6119      6117      6120      6121      6119      6117      6120      6122
      6119      6117      6120      6123      6121      6120      6123      6124
      6121      6120      6123      6125      6121      6120      6123      6126
      6122      6120      6123      6124      6122      6120      6123      6125
      6122      6120      6123      6126      6127      6131      6133      6134
      6127      6131      6133      6135      6127      6131      6136      6137
      6127      6131      6136      6138      6127      6131      6136      6142
      6128      6127      6131      6132      6128      6127      6131      6133
      6128      6127      6131      6136      6129      6127      6131      6132
      6129      6127      6131      6133      6129      6127      6131      6136
      6130      6127      6131      6132      6130      6127      6131      6133
      6130      6127      6131      6136      6131      6136      6142      6139
      6132      6131      6133      6134      6132      6131      6133      6135
      6132      6131      6136      6137      6132      6131      6136      6138
      6132      6131      6136      6142      6133      6131      6136      6137
      6133      6131      6136      6138      6133      6131      6136      6142
      6134      6133      6131      6136      6135      6133      6131      6136
      6136      6142      6139      6140      6136      6142      6139      6141
      6136      6142      6139      6143      6137      6136      6142      6139
      6138      6136      6142      6139      6139      6143      6144      6145
      6139      6143      6144      6146      6139      6143      6144      6147
      6140      6139      6143      6144      6141      6139      6143      6144
      6142      6139      6143      6144      6143      6144      6147      6148
      6143      6144      6147      6149      6143      6144      6147      6155
      6144      6147      6149      6150      6144      6147      6155      6156
      6144      6147      6155      6157      6144      6147      6155      6158
      6145      6144      6147      6148      6145      6144      6147      6149
      6145      6144      6147      6155      6146      6144      6147      6148
      6146      6144      6147      6149      6146      6144      6147      6155
      6147      6149      6150      6151      6147      6149      6150      6152
      6147      6155      6158      6159      6148      6147      6149      6150
      6148      6147      6155      6156      6148      6147      6155      6157
      6148      6147      6155      6158      6149      6147      6155      6156
      6149      6147      6155      6157      6149      6147      6155      6158
      6149      6150      6152      6153      6149      6150      6152      6154
      6149      6150      6152      6164      6150      6149      6147      6155
      6150      6152      6164      6165      6150      6152      6164      6166
      6150      6152      6164      6167      6151      6150      6152      6153
      6151      6150      6152      6154      6151      6150      6152      6164
      6152      6164      6167      6168      6152      6164      6167      6169
      6152      6164      6167      6170      6153      6152      6164      6165
      6153      6152      6164      6166      6153      6152      6164      6167
      6154      6152      6164      6165      6154      6152      6164      6166
      6154      6152      6164      6167      6155      6158      6159      6160
      6155      6158      6159      6161      6156      6155      6158      6159
      6157      6155      6158      6159      6158      6159      6161      6162
      6158      6159      6161      6163      6158      6159      6161      6211
      6159      6161      6211      6212      6159      6161      6211      6213
      6159      6161      6211      6214      6160      6159      6161      6162
      6160      6159      6161      6163      6160      6159      6161      6211
      6161      6211      6214      6215      6161      6211      6214      6216
      6161      6211      6214      6217      6162      6161      6211      6212
      6162      6161      6211      6213      6162      6161      6211      6214
      6163      6161      6211      6212      6163      6161      6211      6213
      6163      6161      6211      6214      6164      6167      6170      6171
      6164      6167      6170      6172      6165      6164      6167      6168
      6165      6164      6167      6169      6165      6164      6167      6170
      6166      6164      6167      6168      6166      6164      6167      6169
      6166      6164      6167      6170      6167      6170      6172      6173
      6167      6170      6172      6174      6168      6167      6170      6171
      6168      6167      6170      6172      6169      6167      6170      6171
      6169      6167      6170      6172      6170      6172      6174      6175
      6170      6172      6174      6176      6170      6172      6174      6177
      6171      6170      6172      6173      6171      6170      6172      6174
      6172      6174      6177      6178      6172      6174      6177      6179
      6173      6172      6174      6175      6173      6172      6174      6176
      6173      6172      6174      6177      6174      6177      6179      6180
      6174      6177      6179      6181      6175      6174      6177      6178
      6175      6174      6177      6179      6176      6174      6177      6178
      6176      6174      6177      6179      6177      6179      6181      6182
      6177      6179      6181      6183      6177      6179      6181      6184
      6178      6177      6179      6180      6178      6177      6179      6181
      6179      6181      6184      6185      6179      6181      6184      6186
      6180      6179      6181      6182      6180      6179      6181      6183
      6180      6179      6181      6184      6181      6184      6186      6187
      6181      6184      6186      6188      6182      6181      6184      6185
      6182      6181      6184      6186      6183      6181      6184      6185
      6183      6181      6184      6186      6184      6186      6188      6189
      6184      6186      6188      6190      6184      6186      6188      6191
      6185      6184      6186      6187      6185      6184      6186      6188
      6186      6188      6191      6192      6186      6188      6191      6193
      6187      6186      6188      6189      6187      6186      6188      6190
      6187      6186      6188      6191      6188      6191      6193      6194
      6188      6191      6193      6195      6189      6188      6191      6192
      6189      6188      6191      6193      6190      6188      6191      6192
      6190      6188      6191      6193      6191      6193      6195      6196
      6191      6193      6195      6197      6191      6193      6195      6198
      6192      6191      6193      6194      6192      6191      6193      6195
      6193      6195      6198      6199      6193      6195      6198      6200
      6193      6195      6198      6201      6194      6193      6195      6196
      6194      6193      6195      6197      6194      6193      6195      6198
      6195      6198      6201      6202      6195      6198      6201      6203
      6195      6198      6201      6204      6196      6195      6198      6199
      6196      6195      6198      6200      6196      6195      6198      6201
      6197      6195      6198      6199      6197      6195      6198      6200
      6197      6195      6198      6201      6198      6201      6204      6205
      6198      6201      6204      6206      6198      6201      6204      6207
      6199      6198      6201      6202      6199      6198      6201      6203
      6199      6198      6201      6204      6200      6198      6201      6202
      6200      6198      6201      6203      6200      6198      6201      6204
      6201      6204      6207      6208      6201      6204      6207      6209
      6201      6204      6207      6210      6202      6201      6204      6205
      6202      6201      6204      6206      6202      6201      6204      6207
      6203      6201      6204      6205      6203      6201      6204      6206
      6203      6201      6204      6207      6205      6204      6207      6208
      6205      6204      6207      6209      6205      6204      6207      6210
      6206      6204      6207      6208      6206      6204      6207      6209
      6206      6204      6207      6210      6211      6214      6217      6218
      6211      6214      6217      6219      6211      6214      6217      6220
      6212      6211      6214      6215      6212      6211      6214      6216
      6212      6211      6214      6217      6213      6211      6214      6215
      6213      6211      6214      6216      6213      6211      6214      6217
      6214      6217      6220      6221      6214      6217      6220      6222
      6214      6217      6220      6223      6215      6214      6217      6218
      6215      6214      6217      6219      6215      6214      6217      6220
      6216      6214      6217      6218      6216      6214      6217      6219
      6216      6214      6217      6220      6217      6220      6223      6224
      6217      6220      6223      6225      6217      6220      6223      6226
      6218      6217      6220      6221      6218      6217      6220      6222
      6218      6217      6220      6223      6219      6217      6220      6221
      6219      6217      6220      6222      6219      6217      6220      6223
      6220      6223      6226      6227      6220      6223      6226      6228
      6220      6223      6226      6229      6221      6220      6223      6224
      6221      6220      6223      6225      6221      6220      6223      6226
      6222      6220      6223      6224      6222      6220      6223      6225
      6222      6220      6223      6226      6223      6226      6229      6230
      6223      6226      6229      6231      6223      6226      6229      6232
      6224      6223      6226      6227      6224      6223      6226      6228
      6224      6223      6226      6229      6225      6223      6226      6227
      6225      6223      6226      6228      6225      6223      6226      6229
      6226      6229      6232      6233      6226      6229      6232      6234
      6226      6229      6232      6235      6227      6226      6229      6230
      6227      6226      6229      6231      6227      6226      6229      6232
      6228      6226      6229      6230      6228      6226      6229      6231
      6228      6226      6229      6232      6229      6232      6235      6236
      6229      6232      6235      6237      6229      6232      6235      6238
      6230      6229      6232      6233      6230      6229      6232      6234
      6230      6229      6232      6235      6231      6229      6232      6233
      6231      6229      6232      6234      6231      6229      6232      6235
      6232      6235      6238      6239      6232      6235      6238      6240
      6232      6235      6238      6241      6233      6232      6235      6236
      6233      6232      6235      6237      6233      6232      6235      6238
      6234      6232      6235      6236      6234      6232      6235      6237
      6234      6232      6235      6238      6235      6238      6241      6242
      6235      6238      6241      6243      6235      6238      6241      6244
      6236      6235      6238      6239      6236      6235      6238      6240
      6236      6235      6238      6241      6237      6235      6238      6239
      6237      6235      6238      6240      6237      6235      6238      6241
      6238      6241      6244      6245      6238      6241      6244      6246
      6238      6241      6244      6247      6239      6238      6241      6242
      6239      6238      6241      6243      6239      6238      6241      6244
      6240      6238      6241      6242      6240      6238      6241      6243
      6240      6238      6241      6244      6241      6244      6247      6248
      6241      6244      6247      6249      6241      6244      6247      6250
      6242      6241      6244      6245      6242      6241      6244      6246
      6242      6241      6244      6247      6243      6241      6244      6245
      6243      6241      6244      6246      6243      6241      6244      6247
      6244      6247      6250      6251      6244      6247      6250      6252
      6244      6247      6250      6253      6245      6244      6247      6248
      6245      6244      6247      6249      6245      6244      6247      6250
      6246      6244      6247      6248      6246      6244      6247      6249
      6246      6244      6247      6250      6247      6250      6253      6254
      6247      6250      6253      6255      6247      6250      6253      6256
      6248      6247      6250      6251      6248      6247      6250      6252
      6248      6247      6250      6253      6249      6247      6250      6251
      6249      6247      6250      6252      6249      6247      6250      6253
      6250      6253      6256      6257      6250      6253      6256      6258
      6250      6253      6256      6259      6251      6250      6253      6254
      6251      6250      6253      6255      6251      6250      6253      6256
      6252      6250      6253      6254      6252      6250      6253      6255
      6252      6250      6253      6256      6254      6253      6256      6257
      6254      6253      6256      6258      6254      6253      6256      6259
      6255      6253      6256      6257      6255      6253      6256      6258
      6255      6253      6256      6259      6260      6273      6276      6277
      6260      6273      6276      6278      6260      6273      6276      6282
      6261      6260      6265      6266      6261      6260      6265      6267
      6261      6260      6265      6268      6261      6260      6269      6270
      6261      6260      6269      6271      6261      6260      6269      6272
      6261      6260      6273      6274      6261      6260      6273      6275
      6261      6260      6273      6276      6262      6261      6260      6265
      6262      6261      6260      6269      6262      6261      6260      6273
      6263      6261      6260      6265      6263      6261      6260      6269
      6263      6261      6260      6273      6264      6261      6260      6265
      6264      6261      6260      6269      6264      6261      6260      6273
      6265      6260      6269      6270      6265      6260      6269      6271
      6265      6260      6269      6272      6265      6260      6273      6274
      6265      6260      6273      6275      6265      6260      6273      6276
      6266      6265      6260      6269      6266      6265      6260      6273
      6267      6265      6260      6269      6267      6265      6260      6273
      6268      6265      6260      6269      6268      6265      6260      6273
      6269      6260      6273      6274      6269      6260      6273      6275
      6269      6260      6273      6276      6270      6269      6260      6273
      6271      6269      6260      6273      6272      6269      6260      6273
      6273      6276      6282      6279      6274      6273      6276      6277
      6274      6273      6276      6278      6274      6273      6276      6282
      6275      6273      6276      6277      6275      6273      6276      6278
      6275      6273      6276      6282      6276      6282      6279      6280
      6276      6282      6279      6281      6276      6282      6279      6283
      6277      6276      6282      6279      6278      6276      6282      6279
      6279      6283      6284      6285      6279      6283      6284      6286
      6279      6283      6284      6287      6280      6279      6283      6284
      6281      6279      6283      6284      6282      6279      6283      6284
      6283      6284      6287      6288      6283      6284      6287      6289
      6283      6284      6287      6295      6284      6287      6289      6290
      6284      6287      6295      6296      6284      6287      6295      6297
      6284      6287      6295      6298      6285      6284      6287      6288
      6285      6284      6287      6289      6285      6284      6287      6295
      6286      6284      6287      6288      6286      6284      6287      6289
      6286      6284      6287      6295      6287      6289      6290      6291
      6287      6289      6290      6292      6287      6295      6298      6299
      6288      6287      6289      6290      6288      6287      6295      6296
      6288      6287      6295      6297      6288      6287      6295      6298
      6289      6287      6295      6296      6289      6287      6295      6297
      6289      6287      6295      6298      6289      6290      6292      6293
      6289      6290      6292      6294      6289      6290      6292      6304
      6290      6289      6287      6295      6290      6292      6304      6305
      6290      6292      6304      6306      6290      6292      6304      6307
      6291      6290      6292      6293      6291      6290      6292      6294
      6291      6290      6292      6304      6292      6304      6307      6308
      6292      6304      6307      6309      6292      6304      6307      6310
      6293      6292      6304      6305      6293      6292      6304      6306
      6293      6292      6304      6307      6294      6292      6304      6305
      6294      6292      6304      6306      6294      6292      6304      6307
      6295      6298      6299      6300      6295      6298      6299      6301
      6296      6295      6298      6299      6297      6295      6298      6299
      6298      6299      6301      6302      6298      6299      6301      6303
      6298      6299      6301      6349      6299      6301      6349      6350
      6299      6301      6349      6351      6299      6301      6349      6352
      6300      6299      6301      6302      6300      6299      6301      6303
      6300      6299      6301      6349      6301      6349      6352      6353
      6301      6349      6352      6354      6301      6349      6352      6355
      6302      6301      6349      6350      6302      6301      6349      6351
      6302      6301      6349      6352      6303      6301      6349      6350
      6303      6301      6349      6351      6303      6301      6349      6352
      6304      6307      6310      6311      6304      6307      6310      6312
      6304      6307      6310      6313      6305      6304      6307      6308
      6305      6304      6307      6309      6305      6304      6307      6310
      6306      6304      6307      6308      6306      6304      6307      6309
      6306      6304      6307      6310      6307      6310      6313      6314
      6307      6310      6313      6315      6307      6310      6313      6316
      6308      6307      6310      6311      6308      6307      6310      6312
      6308      6307      6310      6313      6309      6307      6310      6311
      6309      6307      6310      6312      6309      6307      6310      6313
      6310      6313      6316      6317      6310      6313      6316      6318
      6310      6313      6316      6319      6311      6310      6313      6314
      6311      6310      6313      6315      6311      6310      6313      6316
      6312      6310      6313      6314      6312      6310      6313      6315
      6312      6310      6313      6316      6313      6316      6319      6320
      6313      6316      6319      6321      6313      6316      6319      6322
      6314      6313      6316      6317      6314      6313      6316      6318
      6314      6313      6316      6319      6315      6313      6316      6317
      6315      6313      6316      6318      6315      6313      6316      6319
      6316      6319      6322      6323      6316      6319      6322      6324
      6317      6316      6319      6320      6317      6316      6319      6321
      6317      6316      6319      6322      6318      6316      6319      6320
      6318      6316      6319      6321      6318      6316      6319      6322
      6319      6322      6324      6325      6319      6322      6324      6326
      6320      6319      6322      6323      6320      6319      6322      6324
      6321      6319      6322      6323      6321      6319      6322      6324
      6322      6324      6326      6327      6322      6324      6326      6328
      6322      6324      6326      6329      6323      6322      6324      6325
      6323      6322      6324      6326      6324      6326      6329      6330
      6324      6326      6329      6331      6325      6324      6326      6327
      6325      6324      6326      6328      6325      6324      6326      6329
      6326      6329      6331      6332      6326      6329      6331      6333
      6327      6326      6329      6330      6327      6326      6329      6331
      6328      6326      6329      6330      6328      6326      6329      6331
      6329      6331      6333      6334      6329      6331      6333      6335
      6329      6331      6333      6336      6330      6329      6331      6332
      6330      6329      6331      6333      6331      6333      6336      6337
      6331      6333      6336      6338      6331      6333      6336      6339
      6332      6331      6333      6334      6332      6331      6333      6335
      6332      6331      6333      6336      6333      6336      6339      6340
      6333      6336      6339      6341      6333      6336      6339      6342
      6334      6333      6336      6337      6334      6333      6336      6338
      6334      6333      6336      6339      6335      6333      6336      6337
      6335      6333      6336      6338      6335      6333      6336      6339
      6336      6339      6342      6343      6336      6339      6342      6344
      6336      6339      6342      6345      6337      6336      6339      6340
      6337      6336      6339      6341      6337      6336      6339      6342
      6338      6336      6339      6340      6338      6336      6339      6341
      6338      6336      6339      6342      6339      6342      6345      6346
      6339      6342      6345      6347      6339      6342      6345      6348
      6340      6339      6342      6343      6340      6339      6342      6344
      6340      6339      6342      6345      6341      6339      6342      6343
      6341      6339      6342      6344      6341      6339      6342      6345
      6343      6342      6345      6346      6343      6342      6345      6347
      6343      6342      6345      6348      6344      6342      6345      6346
      6344      6342      6345      6347      6344      6342      6345      6348
      6349      6352      6355      6356      6349      6352      6355      6357
      6349      6352      6355      6358      6350      6349      6352      6353
      6350      6349      6352      6354      6350      6349      6352      6355
      6351      6349      6352      6353      6351      6349      6352      6354
      6351      6349      6352      6355      6352      6355      6358      6359
      6352      6355      6358      6360      6352      6355      6358      6361
      6353      6352      6355      6356      6353      6352      6355      6357
      6353      6352      6355      6358      6354      6352      6355      6356
      6354      6352      6355      6357      6354      6352      6355      6358
      6355      6358      6361      6362      6355      6358      6361      6363
      6355      6358      6361      6364      6356      6355      6358      6359
      6356      6355      6358      6360      6356      6355      6358      6361
      6357      6355      6358      6359      6357      6355      6358      6360
      6357      6355      6358      6361      6358      6361      6364      6365
      6358      6361      6364      6366      6358      6361      6364      6367
      6359      6358      6361      6362      6359      6358      6361      6363
      6359      6358      6361      6364      6360      6358      6361      6362
      6360      6358      6361      6363      6360      6358      6361      6364
      6361      6364      6367      6368      6361      6364      6367      6369
      6361      6364      6367      6370      6362      6361      6364      6365
      6362      6361      6364      6366      6362      6361      6364      6367
      6363      6361      6364      6365      6363      6361      6364      6366
      6363      6361      6364      6367      6364      6367      6370      6371
      6364      6367      6370      6372      6364      6367      6370      6373
      6365      6364      6367      6368      6365      6364      6367      6369
      6365      6364      6367      6370      6366      6364      6367      6368
      6366      6364      6367      6369      6366      6364      6367      6370
      6367      6370      6373      6374      6367      6370      6373      6375
      6367      6370      6373      6376      6368      6367      6370      6371
      6368      6367      6370      6372      6368      6367      6370      6373
      6369      6367      6370      6371      6369      6367      6370      6372
      6369      6367      6370      6373      6370      6373      6376      6377
      6370      6373      6376      6378      6370      6373      6376      6379
      6371      6370      6373      6374      6371      6370      6373      6375
      6371      6370      6373      6376      6372      6370      6373      6374
      6372      6370      6373      6375      6372      6370      6373      6376
      6373      6376      6379      6380      6373      6376      6379      6381
      6373      6376      6379      6382      6374      6373      6376      6377
      6374      6373      6376      6378      6374      6373      6376      6379
      6375      6373      6376      6377      6375      6373      6376      6378
      6375      6373      6376      6379      6376      6379      6382      6383
      6376      6379      6382      6384      6376      6379      6382      6385
      6377      6376      6379      6380      6377      6376      6379      6381
      6377      6376      6379      6382      6378      6376      6379      6380
      6378      6376      6379      6381      6378      6376      6379      6382
      6379      6382      6385      6386      6379      6382      6385      6387
      6379      6382      6385      6388      6380      6379      6382      6383
      6380      6379      6382      6384      6380      6379      6382      6385
      6381      6379      6382      6383      6381      6379      6382      6384
      6381      6379      6382      6385      6382      6385      6388      6389
      6382      6385      6388      6390      6382      6385      6388      6391
      6383      6382      6385      6386      6383      6382      6385      6387
      6383      6382      6385      6388      6384      6382      6385      6386
      6384      6382      6385      6387      6384      6382      6385      6388
      6385      6388      6391      6392      6385      6388      6391      6393
      6385      6388      6391      6394      6386      6385      6388      6389
      6386      6385      6388      6390      6386      6385      6388      6391
      6387      6385      6388      6389      6387      6385      6388      6390
      6387      6385      6388      6391      6388      6391      6394      6395
      6388      6391      6394      6396      6388      6391      6394      6397
      6389      6388      6391      6392      6389      6388      6391      6393
      6389      6388      6391      6394      6390      6388      6391      6392
      6390      6388      6391      6393      6390      6388      6391      6394
      6392      6391      6394      6395      6392      6391      6394      6396
      6392      6391      6394      6397      6393      6391      6394      6395
      6393      6391      6394      6396      6393      6391      6394      6397
      6398      6402      6405      6406      6398      6402      6405      6407
      6398      6402      6405      6411      6399      6398      6402      6403
      6399      6398      6402      6404      6399      6398      6402      6405
      6400      6398      6402      6403      6400      6398      6402      6404
      6400      6398      6402      6405      6401      6398      6402      6403
      6401      6398      6402      6404      6401      6398      6402      6405
      6402      6405      6411      6408      6403      6402      6405      6406
      6403      6402      6405      6407      6403      6402      6405      6411
      6404      6402      6405      6406      6404      6402      6405      6407
      6404      6402      6405      6411      6405      6411      6408      6409
      6405      6411      6408      6410      6405      6411      6408      6412
      6406      6405      6411      6408      6407      6405      6411      6408
      6408      6412      6413      6414      6408      6412      6413      6415
      6408      6412      6413      6416      6409      6408      6412      6413
      6410      6408      6412      6413      6411      6408      6412      6413
      6412      6413      6416      6417      6412      6413      6416      6418
      6412      6413      6416      6424      6413      6416      6418      6419
      6413      6416      6424      6425      6413      6416      6424      6426
      6413      6416      6424      6427      6414      6413      6416      6417
      6414      6413      6416      6418      6414      6413      6416      6424
      6415      6413      6416      6417      6415      6413      6416      6418
      6415      6413      6416      6424      6416      6418      6419      6420
      6416      6418      6419      6421      6416      6424      6427      6428
      6417      6416      6418      6419      6417      6416      6424      6425
      6417      6416      6424      6426      6417      6416      6424      6427
      6418      6416      6424      6425      6418      6416      6424      6426
      6418      6416      6424      6427      6418      6419      6421      6422
      6418      6419      6421      6423      6418      6419      6421      6433
      6419      6418      6416      6424      6419      6421      6433      6434
      6419      6421      6433      6435      6419      6421      6433      6436
      6420      6419      6421      6422      6420      6419      6421      6423
      6420      6419      6421      6433      6421      6433      6436      6437
      6421      6433      6436      6438      6421      6433      6436      6439
      6422      6421      6433      6434      6422      6421      6433      6435
      6422      6421      6433      6436      6423      6421      6433      6434
      6423      6421      6433      6435      6423      6421      6433      6436
      6424      6427      6428      6429      6424      6427      6428      6430
      6425      6424      6427      6428      6426      6424      6427      6428
      6427      6428      6430      6431      6427      6428      6430      6432
      6427      6428      6430      6480      6428      6430      6480      6481
      6428      6430      6480      6482      6428      6430      6480      6483
      6429      6428      6430      6431      6429      6428      6430      6432
      6429      6428      6430      6480      6430      6480      6483      6484
      6430      6480      6483      6485      6430      6480      6483      6486
      6431      6430      6480      6481      6431      6430      6480      6482
      6431      6430      6480      6483      6432      6430      6480      6481
      6432      6430      6480      6482      6432      6430      6480      6483
      6433      6436      6439      6440      6433      6436      6439      6441
      6433      6436      6439      6442      6434      6433      6436      6437
      6434      6433      6436      6438      6434      6433      6436      6439
      6435      6433      6436      6437      6435      6433      6436      6438
      6435      6433      6436      6439      6436      6439      6442      6443
      6436      6439      6442      6444      6436      6439      6442      6445
      6437      6436      6439      6440      6437      6436      6439      6441
      6437      6436      6439      6442      6438      6436      6439      6440
      6438      6436      6439      6441      6438      6436      6439      6442
      6439      6442      6445      6446      6439      6442      6445      6447
      6439      6442      6445      6448      6440      6439      6442      6443
      6440      6439      6442      6444      6440      6439      6442      6445
      6441      6439      6442      6443      6441      6439      6442      6444
      6441      6439      6442      6445      6442      6445      6448      6449
      6442      6445      6448      6450      6442      6445      6448      6451
      6443      6442      6445      6446      6443      6442      6445      6447
      6443      6442      6445      6448      6444      6442      6445      6446
      6444      6442      6445      6447      6444      6442      6445      6448
      6445      6448      6451      6452      6445      6448      6451      6453
      6446      6445      6448      6449      6446      6445      6448      6450
      6446      6445      6448      6451      6447      6445      6448      6449
      6447      6445      6448      6450      6447      6445      6448      6451
      6448      6451      6453      6454      6448      6451      6453      6455
      6449      6448      6451      6452      6449      6448      6451      6453
      6450      6448      6451      6452      6450      6448      6451      6453
      6451      6453      6455      6456      6451      6453      6455      6457
      6451      6453      6455      6458      6452      6451      6453      6454
      6452      6451      6453      6455      6453      6455      6458      6459
      6453      6455      6458      6460      6453      6455      6458      6461
      6454      6453      6455      6456      6454      6453      6455      6457
      6454      6453      6455      6458      6455      6458      6461      6462
      6455      6458      6461      6463      6455      6458      6461      6464
      6456      6455      6458      6459      6456      6455      6458      6460
      6456      6455      6458      6461      6457      6455      6458      6459
      6457      6455      6458      6460      6457      6455      6458      6461
      6458      6461      6464      6465      6458      6461      6464      6466
      6458      6461      6464      6467      6459      6458      6461      6462
      6459      6458      6461      6463      6459      6458      6461      6464
      6460      6458      6461      6462      6460      6458      6461      6463
      6460      6458      6461      6464      6461      6464      6467      6468
      6461      6464      6467      6469      6461      6464      6467      6470
      6462      6461      6464      6465      6462      6461      6464      6466
      6462      6461      6464      6467      6463      6461      6464      6465
      6463      6461      6464      6466      6463      6461      6464      6467
      6464      6467      6470      6471      6464      6467      6470      6472
      6464      6467      6470      6473      6465      6464      6467      6468
      6465      6464      6467      6469      6465      6464      6467      6470
      6466      6464      6467      6468      6466      6464      6467      6469
      6466      6464      6467      6470      6467      6470      6473      6474
      6467      6470      6473      6475      6467      6470      6473      6476
      6468      6467      6470      6471      6468      6467      6470      6472
      6468      6467      6470      6473      6469      6467      6470      6471
      6469      6467      6470      6472      6469      6467      6470      6473
      6470      6473      6476      6477      6470      6473      6476      6478
      6470      6473      6476      6479      6471      6470      6473      6474
      6471      6470      6473      6475      6471      6470      6473      6476
      6472      6470      6473      6474      6472      6470      6473      6475
      6472      6470      6473      6476      6474      6473      6476      6477
      6474      6473      6476      6478      6474      6473      6476      6479
      6475      6473      6476      6477      6475      6473      6476      6478
      6475      6473      6476      6479      6480      6483      6486      6487
      6480      6483      6486      6488      6480      6483      6486      6489
      6481      6480      6483      6484      6481      6480      6483      6485
      6481      6480      6483      6486      6482      6480      6483      6484
      6482      6480      6483      6485      6482      6480      6483      6486
      6483      6486      6489      6490      6483      6486      6489      6491
      6483      6486      6489      6492      6484      6483      6486      6487
      6484      6483      6486      6488      6484      6483      6486      6489
      6485      6483      6486      6487      6485      6483      6486      6488
      6485      6483      6486      6489      6486      6489      6492      6493
      6486      6489      6492      6494      6486      6489      6492      6495
      6487      6486      6489      6490      6487      6486      6489      6491
      6487      6486      6489      6492      6488      6486      6489      6490
      6488      6486      6489      6491      6488      6486      6489      6492
      6489      6492      6495      6496      6489      6492      6495      6497
      6489      6492      6495      6498      6490      6489      6492      6493
      6490      6489      6492      6494      6490      6489      6492      6495
      6491      6489      6492      6493      6491      6489      6492      6494
      6491      6489      6492      6495      6492      6495      6498      6499
      6492      6495      6498      6500      6492      6495      6498      6501
      6493      6492      6495      6496      6493      6492      6495      6497
      6493      6492      6495      6498      6494      6492      6495      6496
      6494      6492      6495      6497      6494      6492      6495      6498
      6495      6498      6501      6502      6495      6498      6501      6503
      6495      6498      6501      6504      6496      6495      6498      6499
      6496      6495      6498      6500      6496      6495      6498      6501
      6497      6495      6498      6499      6497      6495      6498      6500
      6497      6495      6498      6501      6498      6501      6504      6505
      6498      6501      6504      6506      6498      6501      6504      6507
      6499      6498      6501      6502      6499      6498      6501      6503
      6499      6498      6501      6504      6500      6498      6501      6502
      6500      6498      6501      6503      6500      6498      6501      6504
      6501      6504      6507      6508      6501      6504      6507      6509
      6501      6504      6507      6510      6502      6501      6504      6505
      6502      6501      6504      6506      6502      6501      6504      6507
      6503      6501      6504      6505      6503      6501      6504      6506
      6503      6501      6504      6507      6504      6507      6510      6511
      6504      6507      6510      6512      6504      6507      6510      6513
      6505      6504      6507      6508      6505      6504      6507      6509
      6505      6504      6507      6510      6506      6504      6507      6508
      6506      6504      6507      6509      6506      6504      6507      6510
      6507      6510      6513      6514      6507      6510      6513      6515
      6507      6510      6513      6516      6508      6507      6510      6511
      6508      6507      6510      6512      6508      6507      6510      6513
      6509      6507      6510      6511      6509      6507      6510      6512
      6509      6507      6510      6513      6510      6513      6516      6517
      6510      6513      6516      6518      6510      6513      6516      6519
      6511      6510      6513      6514      6511      6510      6513      6515
      6511      6510      6513      6516      6512      6510      6513      6514
      6512      6510      6513      6515      6512      6510      6513      6516
      6513      6516      6519      6520      6513      6516      6519      6521
      6513      6516      6519      6522      6514      6513      6516      6517
      6514      6513      6516      6518      6514      6513      6516      6519
      6515      6513      6516      6517      6515      6513      6516      6518
      6515      6513      6516      6519      6516      6519      6522      6523
      6516      6519      6522      6524      6516      6519      6522      6525
      6517      6516      6519      6520      6517      6516      6519      6521
      6517      6516      6519      6522      6518      6516      6519      6520
      6518      6516      6519      6521      6518      6516      6519      6522
      6519      6522      6525      6526      6519      6522      6525      6527
      6519      6522      6525      6528      6520      6519      6522      6523
      6520      6519      6522      6524      6520      6519      6522      6525
      6521      6519      6522      6523      6521      6519      6522      6524
      6521      6519      6522      6525      6523      6522      6525      6526
      6523      6522      6525      6527      6523      6522      6525      6528
      6524      6522      6525      6526      6524      6522      6525      6527
      6524      6522      6525      6528      6529      6530      6545      6546
      6529      6530      6545      6547      6529      6530      6545      6551
      6530      6529      6533      6534      6530      6529      6533      6535
      6530      6529      6533      6536      6530      6529      6537      6538
      6530      6529      6537      6539      6530      6529      6537      6540
      6530      6529      6541      6542      6530      6529      6541      6543
      6530      6529      6541      6544      6530      6545      6551      6548
      6531      6530      6529      6533      6531      6530      6529      6537
      6531      6530      6529      6541      6531      6530      6545      6546
      6531      6530      6545      6547      6531      6530      6545      6551
      6532      6530      6529      6533      6532      6530      6529      6537
      6532      6530      6529      6541      6532      6530      6545      6546
      6532      6530      6545      6547      6532      6530      6545      6551
      6533      6529      6530      6545      6533      6529      6537      6538
      6533      6529      6537      6539      6533      6529      6537      6540
      6533      6529      6541      6542      6533      6529      6541      6543
      6533      6529      6541      6544      6534      6533      6529      6537
      6534      6533      6529      6541      6535      6533      6529      6537
      6535      6533      6529      6541      6536      6533      6529      6537
      6536      6533      6529      6541      6537      6529      6530      6545
      6537      6529      6541      6542      6537      6529      6541      6543
      6537      6529      6541      6544      6538      6537      6529      6541
      6539      6537      6529      6541      6540      6537      6529      6541
      6541      6529      6530      6545      6545      6551      6548      6549
      6545      6551      6548      6550      6545      6551      6548      6552
      6546      6545      6551      6548      6547      6545      6551      6548
      6548      6552      6553      6554      6548      6552      6553      6555
      6548      6552      6553      6556      6549      6548      6552      6553
      6550      6548      6552      6553      6551      6548      6552      6553
      6552      6553      6556      6557      6552      6553      6556      6558
      6552      6553      6556      6564      6553      6556      6558      6559
      6553      6556      6564      6565      6553      6556      6564      6566
      6553      6556      6564      6567      6554      6553      6556      6557
      6554      6553      6556      6558      6554      6553      6556      6564
      6555      6553      6556      6557      6555      6553      6556      6558
      6555      6553      6556      6564      6556      6558      6559      6560
      6556      6558      6559      6561      6556      6564      6567      6568
      6557      6556      6558      6559      6557      6556      6564      6565
      6557      6556      6564      6566      6557      6556      6564      6567
      6558      6556      6564      6565      6558      6556      6564      6566
      6558      6556      6564      6567      6558      6559      6561      6562
      6558      6559      6561      6563      6558      6559      6561      6573
      6559      6558      6556      6564      6559      6561      6573      6574
      6559      6561      6573      6575      6559      6561      6573      6576
      6560      6559      6561      6562      6560      6559      6561      6563
      6560      6559      6561      6573      6561      6573      6576      6577
      6561      6573      6576      6578      6561      6573      6576      6579
      6562      6561      6573      6574      6562      6561      6573      6575
      6562      6561      6573      6576      6563      6561      6573      6574
      6563      6561      6573      6575      6563      6561      6573      6576
      6564      6567      6568      6569      6564      6567      6568      6570
      6565      6564      6567      6568      6566      6564      6567      6568
      6567      6568      6570      6571      6567      6568      6570      6572
      6567      6568      6570      6620      6568      6570      6620      6621
      6568      6570      6620      6622      6568      6570      6620      6623
      6569      6568      6570      6571      6569      6568      6570      6572
      6569      6568      6570      6620      6570      6620      6623      6624
      6570      6620      6623      6625      6570      6620      6623      6626
      6571      6570      6620      6621      6571      6570      6620      6622
      6571      6570      6620      6623      6572      6570      6620      6621
      6572      6570      6620      6622      6572      6570      6620      6623
      6573      6576      6579      6580      6573      6576      6579      6581
      6574      6573      6576      6577      6574      6573      6576      6578
      6574      6573      6576      6579      6575      6573      6576      6577
      6575      6573      6576      6578      6575      6573      6576      6579
      6576      6579      6581      6582      6576      6579      6581      6583
      6577      6576      6579      6580      6577      6576      6579      6581
      6578      6576      6579      6580      6578      6576      6579      6581
      6579      6581      6583      6584      6579      6581      6583      6585
      6579      6581      6583      6586      6580      6579      6581      6582
      6580      6579      6581      6583      6581      6583      6586      6587
      6581      6583      6586      6588      6582      6581      6583      6584
      6582      6581      6583      6585      6582      6581      6583      6586
      6583      6586      6588      6589      6583      6586      6588      6590
      6584      6583      6586      6587      6584      6583      6586      6588
      6585      6583      6586      6587      6585      6583      6586      6588
      6586      6588      6590      6591      6586      6588      6590      6592
      6586      6588      6590      6593      6587      6586      6588      6589
      6587      6586      6588      6590      6588      6590      6593      6594
      6588      6590      6593      6595      6589      6588      6590      6591
      6589      6588      6590      6592      6589      6588      6590      6593
      6590      6593      6595      6596      6590      6593      6595      6597
      6591      6590      6593      6594      6591      6590      6593      6595
      6592      6590      6593      6594      6592      6590      6593      6595
      6593      6595      6597      6598      6593      6595      6597      6599
      6593      6595      6597      6600      6594      6593      6595      6596
      6594      6593      6595      6597      6595      6597      6600      6601
      6595      6597      6600      6602      6596      6595      6597      6598
      6596      6595      6597      6599      6596      6595      6597      6600
      6597      6600      6602      6603      6597      6600      6602      6604
      6598      6597      6600      6601      6598      6597      6600      6602
      6599      6597      6600      6601      6599      6597      6600      6602
      6600      6602      6604      6605      6600      6602      6604      6606
      6600      6602      6604      6607      6601      6600      6602      6603
      6601      6600      6602      6604      6602      6604      6607      6608
      6602      6604      6607      6609      6602      6604      6607      6610
      6603      6602      6604      6605      6603      6602      6604      6606
      6603      6602      6604      6607      6604      6607      6610      6611
      6604      6607      6610      6612      6604      6607      6610      6613
      6605      6604      6607      6608      6605      6604      6607      6609
      6605      6604      6607      6610      6606      6604      6607      6608
      6606      6604      6607      6609      6606      6604      6607      6610
      6607      6610      6613      6614      6607      6610      6613      6615
      6607      6610      6613      6616      6608      6607      6610      6611
      6608      6607      6610      6612      6608      6607      6610      6613
      6609      6607      6610      6611      6609      6607      6610      6612
      6609      6607      6610      6613      6610      6613      6616      6617
      6610      6613      6616      6618      6610      6613      6616      6619
      6611      6610      6613      6614      6611      6610      6613      6615
      6611      6610      6613      6616      6612      6610      6613      6614
      6612      6610      6613      6615      6612      6610      6613      6616
      6614      6613      6616      6617      6614      6613      6616      6618
      6614      6613      6616      6619      6615      6613      6616      6617
      6615      6613      6616      6618      6615      6613      6616      6619
      6620      6623      6626      6627      6620      6623      6626      6628
      6620      6623      6626      6629      6621      6620      6623      6624
      6621      6620      6623      6625      6621      6620      6623      6626
      6622      6620      6623      6624      6622      6620      6623      6625
      6622      6620      6623      6626      6623      6626      6629      6630
      6623      6626      6629      6631      6623      6626      6629      6632
      6624      6623      6626      6627      6624      6623      6626      6628
      6624      6623      6626      6629      6625      6623      6626      6627
      6625      6623      6626      6628      6625      6623      6626      6629
      6626      6629      6632      6633      6626      6629      6632      6634
      6626      6629      6632      6635      6627      6626      6629      6630
      6627      6626      6629      6631      6627      6626      6629      6632
      6628      6626      6629      6630      6628      6626      6629      6631
      6628      6626      6629      6632      6629      6632      6635      6636
      6629      6632      6635      6637      6629      6632      6635      6638
      6630      6629      6632      6633      6630      6629      6632      6634
      6630      6629      6632      6635      6631      6629      6632      6633
      6631      6629      6632      6634      6631      6629      6632      6635
      6632      6635      6638      6639      6632      6635      6638      6640
      6632      6635      6638      6641      6633      6632      6635      6636
      6633      6632      6635      6637      6633      6632      6635      6638
      6634      6632      6635      6636      6634      6632      6635      6637
      6634      6632      6635      6638      6635      6638      6641      6642
      6635      6638      6641      6643      6635      6638      6641      6644
      6636      6635      6638      6639      6636      6635      6638      6640
      6636      6635      6638      6641      6637      6635      6638      6639
      6637      6635      6638      6640      6637      6635      6638      6641
      6638      6641      6644      6645      6638      6641      6644      6646
      6638      6641      6644      6647      6639      6638      6641      6642
      6639      6638      6641      6643      6639      6638      6641      6644
      6640      6638      6641      6642      6640      6638      6641      6643
      6640      6638      6641      6644      6641      6644      6647      6648
      6641      6644      6647      6649      6641      6644      6647      6650
      6642      6641      6644      6645      6642      6641      6644      6646
      6642      6641      6644      6647      6643      6641      6644      6645
      6643      6641      6644      6646      6643      6641      6644      6647
      6644      6647      6650      6651      6644      6647      6650      6652
      6644      6647      6650      6653      6645      6644      6647      6648
      6645      6644      6647      6649      6645      6644      6647      6650
      6646      6644      6647      6648      6646      6644      6647      6649
      6646      6644      6647      6650      6647      6650      6653      6654
      6647      6650      6653      6655      6647      6650      6653      6656
      6648      6647      6650      6651      6648      6647      6650      6652
      6648      6647      6650      6653      6649      6647      6650      6651
      6649      6647      6650      6652      6649      6647      6650      6653
      6650      6653      6656      6657      6650      6653      6656      6658
      6650      6653      6656      6659      6651      6650      6653      6654
      6651      6650      6653      6655      6651      6650      6653      6656
      6652      6650      6653      6654      6652      6650      6653      6655
      6652      6650      6653      6656      6653      6656      6659      6660
      6653      6656      6659      6661      6653      6656      6659      6662
      6654      6653      6656      6657      6654      6653      6656      6658
      6654      6653      6656      6659      6655      6653      6656      6657
      6655      6653      6656      6658      6655      6653      6656      6659
      6656      6659      6662      6663      6656      6659      6662      6664
      6656      6659      6662      6665      6657      6656      6659      6660
      6657      6656      6659      6661      6657      6656      6659      6662
      6658      6656      6659      6660      6658      6656      6659      6661
      6658      6656      6659      6662      6659      6662      6665      6666
      6659      6662      6665      6667      6659      6662      6665      6668
      6660      6659      6662      6663      6660      6659      6662      6664
      6660      6659      6662      6665      6661      6659      6662      6663
      6661      6659      6662      6664      6661      6659      6662      6665
      6663      6662      6665      6666      6663      6662      6665      6667
      6663      6662      6665      6668      6664      6662      6665      6666
      6664      6662      6665      6667      6664      6662      6665      6668
      6669      6682      6685      6686      6669      6682      6685      6687
      6669      6682      6685      6692      6670      6669      6674      6675
      6670      6669      6674      6676      6670      6669      6674      6677
      6670      6669      6678      6679      6670      6669      6678      6680
      6670      6669      6678      6681      6670      6669      6682      6683
      6670      6669      6682      6684      6670      6669      6682      6685
      6671      6670      6669      6674      6671      6670      6669      6678
      6671      6670      6669      6682      6672      6670      6669      6674
      6672      6670      6669      6678      6672      6670      6669      6682
      6673      6670      6669      6674      6673      6670      6669      6678
      6673      6670      6669      6682      6674      6669      6678      6679
      6674      6669      6678      6680      6674      6669      6678      6681
      6674      6669      6682      6683      6674      6669      6682      6684
      6674      6669      6682      6685      6675      6674      6669      6678
      6675      6674      6669      6682      6676      6674      6669      6678
      6676      6674      6669      6682      6677      6674      6669      6678
      6677      6674      6669      6682      6678      6669      6682      6683
      6678      6669      6682      6684      6678      6669      6682      6685
      6679      6678      6669      6682      6680      6678      6669      6682
      6681      6678      6669      6682      6682      6685      6692      6688
      6683      6682      6685      6686      6683      6682      6685      6687
      6683      6682      6685      6692      6684      6682      6685      6686
      6684      6682      6685      6687      6684      6682      6685      6692
      6685      6692      6688      6689      6685      6692      6688      6690
      6685      6692      6688      6691      6686      6685      6692      6688
      6687      6685      6692      6688      6688      6691      6693      6694
      6688      6691      6693      6695      6688      6691      6693      6698
      6689      6688      6691      6693      6690      6688      6691      6693
      6691      6693      6698      6696      6691      6693      6698      6699
      6691      6693      6698      6700      6692      6688      6691      6693
      6693      6698      6696      6697      6693      6698      6696      6748
      6693      6698      6700      6701      6693      6698      6700      6702
      6693      6698      6700      6704      6694      6693      6698      6696
      6694      6693      6698      6699      6694      6693      6698      6700
      6695      6693      6698      6696      6695      6693      6698      6699
      6695      6693      6698      6700      6696      6698      6700      6701
      6696      6698      6700      6702      6696      6698      6700      6704
      6696      6748      6750      6751      6696      6748      6750      6752
      6696      6748      6750      6753      6697      6696      6698      6699
      6697      6696      6698      6700      6697      6696      6748      6749
      6697      6696      6748      6750      6698      6696      6748      6749
      6698      6696      6748      6750      6698      6700      6702      6703
      6698      6700      6704      6705      6698      6700      6704      6706
      6699      6698      6696      6748      6699      6698      6700      6701
      6699      6698      6700      6702      6699      6698      6700      6704
      6700      6698      6696      6748      6700      6704      6706      6707
      6700      6704      6706      6708      6701      6700      6702      6703
      6701      6700      6704      6705      6701      6700      6704      6706
      6702      6700      6704      6705      6702      6700      6704      6706
      6703      6702      6700      6704      6704      6706      6708      6709
      6704      6706      6708      6710      6704      6706      6708      6711
      6705      6704      6706      6707      6705      6704      6706      6708
      6706      6708      6711      6712      6706      6708      6711      6713
      6706      6708      6711      6714      6707      6706      6708      6709
      6707      6706      6708      6710      6707      6706      6708      6711
      6708      6711      6714      6715      6708      6711      6714      6716
      6708      6711      6714      6717      6709      6708      6711      6712
      6709      6708      6711      6713      6709      6708      6711      6714
      6710      6708      6711      6712      6710      6708      6711      6713
      6710      6708      6711      6714      6711      6714      6717      6718
      6711      6714      6717      6719      6711      6714      6717      6720
      6712      6711      6714      6715      6712      6711      6714      6716
      6712      6711      6714      6717      6713      6711      6714      6715
      6713      6711      6714      6716      6713      6711      6714      6717
      6714      6717      6720      6721      6714      6717      6720      6722
      6714      6717      6720      6723      6715      6714      6717      6718
      6715      6714      6717      6719      6715      6714      6717      6720
      6716      6714      6717      6718      6716      6714      6717      6719
      6716      6714      6717      6720      6717      6720      6723      6724
      6717      6720      6723      6725      6717      6720      6723      6726
      6718      6717      6720      6721      6718      6717      6720      6722
      6718      6717      6720      6723      6719      6717      6720      6721
      6719      6717      6720      6722      6719      6717      6720      6723
      6720      6723      6726      6727      6720      6723      6726      6728
      6720      6723      6726      6729      6721      6720      6723      6724
      6721      6720      6723      6725      6721      6720      6723      6726
      6722      6720      6723      6724      6722      6720      6723      6725
      6722      6720      6723      6726      6723      6726      6729      6730
      6723      6726      6729      6731      6723      6726      6729      6732
      6724      6723      6726      6727      6724      6723      6726      6728
      6724      6723      6726      6729      6725      6723      6726      6727
      6725      6723      6726      6728      6725      6723      6726      6729
      6726      6729      6732      6733      6726      6729      6732      6734
      6726      6729      6732      6735      6727      6726      6729      6730
      6727      6726      6729      6731      6727      6726      6729      6732
      6728      6726      6729      6730      6728      6726      6729      6731
      6728      6726      6729      6732      6729      6732      6735      6736
      6729      6732      6735      6737      6729      6732      6735      6738
      6730      6729      6732      6733      6730      6729      6732      6734
      6730      6729      6732      6735      6731      6729      6732      6733
      6731      6729      6732      6734      6731      6729      6732      6735
      6732      6735      6738      6739      6732      6735      6738      6740
      6732      6735      6738      6741      6733      6732      6735      6736
      6733      6732      6735      6737      6733      6732      6735      6738
      6734      6732      6735      6736      6734      6732      6735      6737
      6734      6732      6735      6738      6735      6738      6741      6742
      6735      6738      6741      6743      6735      6738      6741      6744
      6736      6735      6738      6739      6736      6735      6738      6740
      6736      6735      6738      6741      6737      6735      6738      6739
      6737      6735      6738      6740      6737      6735      6738      6741
      6738      6741      6744      6745      6738      6741      6744      6746
      6738      6741      6744      6747      6739      6738      6741      6742
      6739      6738      6741      6743      6739      6738      6741      6744
      6740      6738      6741      6742      6740      6738      6741      6743
      6740      6738      6741      6744      6742      6741      6744      6745
      6742      6741      6744      6746      6742      6741      6744      6747
      6743      6741      6744      6745      6743      6741      6744      6746
      6743      6741      6744      6747      6748      6750      6753      6754
      6748      6750      6753      6755      6748      6750      6753      6756
      6749      6748      6750      6751      6749      6748      6750      6752
      6749      6748      6750      6753      6750      6753      6756      6757
      6750      6753      6756      6758      6750      6753      6756      6759
      6751      6750      6753      6754      6751      6750      6753      6755
      6751      6750      6753      6756      6752      6750      6753      6754
      6752      6750      6753      6755      6752      6750      6753      6756
      6753      6756      6759      6760      6753      6756      6759      6761
      6753      6756      6759      6762      6754      6753      6756      6757
      6754      6753      6756      6758      6754      6753      6756      6759
      6755      6753      6756      6757      6755      6753      6756      6758
      6755      6753      6756      6759      6756      6759      6762      6763
      6756      6759      6762      6764      6756      6759      6762      6765
      6757      6756      6759      6760      6757      6756      6759      6761
      6757      6756      6759      6762      6758      6756      6759      6760
      6758      6756      6759      6761      6758      6756      6759      6762
      6759      6762      6765      6766      6759      6762      6765      6767
      6759      6762      6765      6768      6760      6759      6762      6763
      6760      6759      6762      6764      6760      6759      6762      6765
      6761      6759      6762      6763      6761      6759      6762      6764
      6761      6759      6762      6765      6762      6765      6768      6769
      6762      6765      6768      6770      6762      6765      6768      6771
      6763      6762      6765      6766      6763      6762      6765      6767
      6763      6762      6765      6768      6764      6762      6765      6766
      6764      6762      6765      6767      6764      6762      6765      6768
      6765      6768      6771      6772      6765      6768      6771      6773
      6766      6765      6768      6769      6766      6765      6768      6770
      6766      6765      6768      6771      6767      6765      6768      6769
      6767      6765      6768      6770      6767      6765      6768      6771
      6768      6771      6773      6774      6768      6771      6773      6775
      6769      6768      6771      6772      6769      6768      6771      6773
      6770      6768      6771      6772      6770      6768      6771      6773
      6771      6773      6775      6776      6771      6773      6775      6777
      6771      6773      6775      6778      6772      6771      6773      6774
      6772      6771      6773      6775      6773      6775      6778      6779
      6773      6775      6778      6780      6773      6775      6778      6781
      6774      6773      6775      6776      6774      6773      6775      6777
      6774      6773      6775      6778      6775      6778      6781      6782
      6775      6778      6781      6783      6775      6778      6781      6784
      6776      6775      6778      6779      6776      6775      6778      6780
      6776      6775      6778      6781      6777      6775      6778      6779
      6777      6775      6778      6780      6777      6775      6778      6781
      6778      6781      6784      6785      6778      6781      6784      6786
      6778      6781      6784      6787      6779      6778      6781      6782
      6779      6778      6781      6783      6779      6778      6781      6784
      6780      6778      6781      6782      6780      6778      6781      6783
      6780      6778      6781      6784      6781      6784      6787      6788
      6781      6784      6787      6789      6781      6784      6787      6790
      6782      6781      6784      6785      6782      6781      6784      6786
      6782      6781      6784      6787      6783      6781      6784      6785
      6783      6781      6784      6786      6783      6781      6784      6787
      6784      6787      6790      6791      6784      6787      6790      6792
      6784      6787      6790      6793      6785      6784      6787      6788
      6785      6784      6787      6789      6785      6784      6787      6790
      6786      6784      6787      6788      6786      6784      6787      6789
      6786      6784      6787      6790      6787      6790      6793      6794
      6787      6790      6793      6795      6787      6790      6793      6796
      6788      6787      6790      6791      6788      6787      6790      6792
      6788      6787      6790      6793      6789      6787      6790      6791
      6789      6787      6790      6792      6789      6787      6790      6793
      6790      6793      6796      6797      6790      6793      6796      6798
      6790      6793      6796      6799      6791      6790      6793      6794
      6791      6790      6793      6795      6791      6790      6793      6796
      6792      6790      6793      6794      6792      6790      6793      6795
      6792      6790      6793      6796      6794      6793      6796      6797
      6794      6793      6796      6798      6794      6793      6796      6799
      6795      6793      6796      6797      6795      6793      6796      6798
      6795      6793      6796      6799      6800      6804      6807      6808
      6800      6804      6807      6838      6800      6846      6843      6838
      6800      6846      6843      6844      6800      6846      6843      6845
      6801      6800      6802      6803      6801      6800      6804      6805
      6801      6800      6804      6806      6801      6800      6804      6807
      6801      6800      6846      6843      6801      6800      6846      6847
      6801      6800      6846      6848      6802      6800      6804      6805
      6802      6800      6804      6806      6802      6800      6804      6807
      6802      6800      6846      6843      6802      6800      6846      6847
      6802      6800      6846      6848      6803      6802      6800      6804
      6803      6802      6800      6846      6804      6800      6846      6843
      6804      6800      6846      6847      6804      6800      6846      6848
      6804      6807      6808      6809      6804      6807      6808      6810
      6804      6807      6838      6836      6804      6807      6838      6839
      6804      6807      6838      6843      6805      6804      6800      6846
      6805      6804      6807      6808      6805      6804      6807      6838
      6806      6804      6800      6846      6806      6804      6807      6808
      6806      6804      6807      6838      6807      6804      6800      6846
      6807      6808      6810      6811      6807      6808      6810      6812
      6807      6808      6810      6813      6807      6838      6836      6813
      6807      6838      6836      6833      6807      6838      6836      6837
      6807      6838      6839      6840      6807      6838      6839      6841
      6807      6838      6839      6842      6807      6838      6843      6844
      6807      6838      6843      6845      6807      6838      6843      6846
      6808      6807      6838      6836      6808      6807      6838      6839
      6808      6807      6838      6843      6808      6810      6813      6814
      6808      6810      6813      6815      6808      6810      6813      6836
      6809      6808      6807      6838      6809      6808      6810      6811
      6809      6808      6810      6812      6809      6808      6810      6813
      6810      6808      6807      6838      6810      6813      6815      6816
      6810      6813      6815      6817      6810      6813      6815      6825
      6810      6813      6836      6833      6810      6813      6836      6837
      6810      6813      6836      6838      6811      6810      6813      6814
      6811      6810      6813      6815      6811      6810      6813      6836
      6812      6810      6813      6814      6812      6810      6813      6815
      6812      6810      6813      6836      6813      6815      6817      6818
      6813      6815      6817      6819      6813      6815      6817      6820
      6813      6815      6825      6823      6813      6815      6825      6826
      6813      6815      6825      6830      6813      6836      6833      6830
      6813      6836      6833      6834      6813      6836      6833      6835
      6813      6836      6838      6839      6813      6836      6838      6843
      6814      6813      6815      6816      6814      6813      6815      6817
      6814      6813      6815      6825      6814      6813      6836      6833
      6814      6813      6836      6837      6814      6813      6836      6838
      6815      6813      6836      6833      6815      6813      6836      6837
      6815      6813      6836      6838      6815      6817      6820      6821
      6815      6817      6820      6822      6815      6817      6820      6823
      6815      6825      6823      6820      6815      6825      6823      6824
      6815      6825      6823      6849      6815      6825      6826      6827
      6815      6825      6826      6828      6815      6825      6826      6829
      6815      6825      6830      6831      6815      6825      6830      6832
      6815      6825      6830      6833      6816      6815      6813      6836
      6816      6815      6817      6818      6816      6815      6817      6819
      6816      6815      6817      6820      6816      6815      6825      6823
      6816      6815      6825      6826      6816      6815      6825      6830
      6817      6815      6813      6836      6817      6815      6825      6823
      6817      6815      6825      6826      6817      6815      6825      6830
      6817      6820      6823      6824      6817      6820      6823      6825
      6817      6820      6823      6849      6818      6817      6815      6825
      6818      6817      6820      6821      6818      6817      6820      6822
      6818      6817      6820      6823      6819      6817      6815      6825
      6819      6817      6820      6821      6819      6817      6820      6822
      6819      6817      6820      6823      6820      6817      6815      6825
      6820      6823      6825      6826      6820      6823      6825      6830
      6820      6823      6849      6850      6820      6823      6849      6851
      6820      6823      6849      6855      6821      6820      6823      6824
      6821      6820      6823      6825      6821      6820      6823      6849
      6822      6820      6823      6824      6822      6820      6823      6825
      6822      6820      6823      6849      6823      6825      6826      6827
      6823      6825      6826      6828      6823      6825      6826      6829
      6823      6825      6830      6831      6823      6825      6830      6832
      6823      6825      6830      6833      6823      6849      6851      6852
      6823      6849      6851      6853      6823      6849      6851      6854
      6823      6849      6855      6856      6823      6849      6855      6857
      6823      6849      6855      6858      6824      6823      6825      6826
      6824      6823      6825      6830      6824      6823      6849      6850
      6824      6823      6849      6851      6824      6823      6849      6855
      6825      6815      6813      6836      6825      6823      6849      6850
      6825      6823      6849      6851      6825      6823      6849      6855
      6825      6830      6833      6834      6825      6830      6833      6835
      6825      6830      6833      6836      6826      6825      6823      6849
      6826      6825      6830      6831      6826      6825      6830      6832
      6826      6825      6830      6833      6827      6826      6825      6830
      6828      6826      6825      6830      6829      6826      6825      6830
      6830      6825      6823      6849      6830      6833      6836      6837
      6830      6833      6836      6838      6831      6830      6833      6834
      6831      6830      6833      6835      6831      6830      6833      6836
      6832      6830      6833      6834      6832      6830      6833      6835
      6832      6830      6833      6836      6833      6836      6838      6839
      6833      6836      6838      6843      6834      6833      6836      6837
      6834      6833      6836      6838      6835      6833      6836      6837
      6835      6833      6836      6838      6836      6838      6839      6840
      6836      6838      6839      6841      6836      6838      6839      6842
      6836      6838      6843      6844      6836      6838      6843      6845
      6836      6838      6843      6846      6837      6836      6838      6839
      6837      6836      6838      6843      6838      6843      6846      6847
      6838      6843      6846      6848      6839      6838      6843      6844
      6839      6838      6843      6845      6839      6838      6843      6846
      6840      6839      6838      6843      6841      6839      6838      6843
      6842      6839      6838      6843      6844      6843      6846      6847
      6844      6843      6846      6848      6845      6843      6846      6847
      6845      6843      6846      6848      6849      6855      6858      6859
      6849      6855      6858      6860      6849      6855      6858      6861
      6850      6849      6851      6852      6850      6849      6851      6853
      6850      6849      6851      6854      6850      6849      6855      6856
      6850      6849      6855      6857      6850      6849      6855      6858
      6851      6849      6855      6856      6851      6849      6855      6857
      6851      6849      6855      6858      6852      6851      6849      6855
      6853      6851      6849      6855      6854      6851      6849      6855
      6855      6858      6861      6862      6855      6858      6861      6863
      6855      6858      6861      6864      6856      6855      6858      6859
      6856      6855      6858      6860      6856      6855      6858      6861
      6857      6855      6858      6859      6857      6855      6858      6860
      6857      6855      6858      6861      6858      6861      6864      6865
      6858      6861      6864      6866      6858      6861      6864      6870
      6859      6858      6861      6862      6859      6858      6861      6863
      6859      6858      6861      6864      6860      6858      6861      6862
      6860      6858      6861      6863      6860      6858      6861      6864
      6861      6864      6866      6867      6861      6864      6866      6868
      6861      6864      6866      6869      6861      6864      6870      6871
      6861      6864      6870      6872      6861      6864      6870      6873
      6862      6861      6864      6865      6862      6861      6864      6866
      6862      6861      6864      6870      6863      6861      6864      6865
      6863      6861      6864      6866      6863      6861      6864      6870
      6865      6864      6866      6867      6865      6864      6866      6868
      6865      6864      6866      6869      6865      6864      6870      6871
      6865      6864      6870      6872      6865      6864      6870      6873
      6866      6864      6870      6871      6866      6864      6870      6872
      6866      6864      6870      6873      6867      6866      6864      6870
      6868      6866      6864      6870      6869      6866      6864      6870
      6874      6887      6890      6891      6874      6887      6890      6892
      6874      6887      6890      6896      6875      6874      6879      6880
      6875      6874      6879      6881      6875      6874      6879      6882
      6875      6874      6883      6884      6875      6874      6883      6885
      6875      6874      6883      6886      6875      6874      6887      6888
      6875      6874      6887      6889      6875      6874      6887      6890
      6876      6875      6874      6879      6876      6875      6874      6883
      6876      6875      6874      6887      6877      6875      6874      6879
      6877      6875      6874      6883      6877      6875      6874      6887
      6878      6875      6874      6879      6878      6875      6874      6883
      6878      6875      6874      6887      6879      6874      6883      6884
      6879      6874      6883      6885      6879      6874      6883      6886
      6879      6874      6887      6888      6879      6874      6887      6889
      6879      6874      6887      6890      6880      6879      6874      6883
      6880      6879      6874      6887      6881      6879      6874      6883
      6881      6879      6874      6887      6882      6879      6874      6883
      6882      6879      6874      6887      6883      6874      6887      6888
      6883      6874      6887      6889      6883      6874      6887      6890
      6884      6883      6874      6887      6885      6883      6874      6887
      6886      6883      6874      6887      6887      6890      6896      6893
      6888      6887      6890      6891      6888      6887      6890      6892
      6888      6887      6890      6896      6889      6887      6890      6891
      6889      6887      6890      6892      6889      6887      6890      6896
      6890      6896      6893      6894      6890      6896      6893      6895
      6890      6896      6893      6897      6891      6890      6896      6893
      6892      6890      6896      6893      6893      6897      6898      6899
      6893      6897      6898      6900      6893      6897      6898      6901
      6894      6893      6897      6898      6895      6893      6897      6898
      6896      6893      6897      6898      6897      6898      6901      6902
      6897      6898      6901      6903      6897      6898      6901      6909
      6898      6901      6903      6904      6898      6901      6909      6910
      6898      6901      6909      6911      6898      6901      6909      6912
      6899      6898      6901      6902      6899      6898      6901      6903
      6899      6898      6901      6909      6900      6898      6901      6902
      6900      6898      6901      6903      6900      6898      6901      6909
      6901      6903      6904      6905      6901      6903      6904      6906
      6901      6909      6912      6913      6902      6901      6903      6904
      6902      6901      6909      6910      6902      6901      6909      6911
      6902      6901      6909      6912      6903      6901      6909      6910
      6903      6901      6909      6911      6903      6901      6909      6912
      6903      6904      6906      6907      6903      6904      6906      6908
      6903      6904      6906      6918      6904      6903      6901      6909
      6904      6906      6918      6919      6904      6906      6918      6920
      6904      6906      6918      6921      6905      6904      6906      6907
      6905      6904      6906      6908      6905      6904      6906      6918
      6906      6918      6921      6922      6906      6918      6921      6923
      6906      6918      6921      6924      6907      6906      6918      6919
      6907      6906      6918      6920      6907      6906      6918      6921
      6908      6906      6918      6919      6908      6906      6918      6920
      6908      6906      6918      6921      6909      6912      6913      6914
      6909      6912      6913      6915      6910      6909      6912      6913
      6911      6909      6912      6913      6912      6913      6915      6916
      6912      6913      6915      6917      6912      6913      6915      6963
      6913      6915      6963      6964      6913      6915      6963      6965
      6913      6915      6963      6966      6914      6913      6915      6916
      6914      6913      6915      6917      6914      6913      6915      6963
      6915      6963      6966      6967      6915      6963      6966      6968
      6915      6963      6966      6969      6916      6915      6963      6964
      6916      6915      6963      6965      6916      6915      6963      6966
      6917      6915      6963      6964      6917      6915      6963      6965
      6917      6915      6963      6966      6918      6921      6924      6925
      6918      6921      6924      6926      6918      6921      6924      6927
      6919      6918      6921      6922      6919      6918      6921      6923
      6919      6918      6921      6924      6920      6918      6921      6922
      6920      6918      6921      6923      6920      6918      6921      6924
      6921      6924      6927      6928      6921      6924      6927      6929
      6921      6924      6927      6930      6922      6921      6924      6925
      6922      6921      6924      6926      6922      6921      6924      6927
      6923      6921      6924      6925      6923      6921      6924      6926
      6923      6921      6924      6927      6924      6927      6930      6931
      6924      6927      6930      6932      6924      6927      6930      6933
      6925      6924      6927      6928      6925      6924      6927      6929
      6925      6924      6927      6930      6926      6924      6927      6928
      6926      6924      6927      6929      6926      6924      6927      6930
      6927      6930      6933      6934      6927      6930      6933      6935
      6927      6930      6933      6936      6928      6927      6930      6931
      6928      6927      6930      6932      6928      6927      6930      6933
      6929      6927      6930      6931      6929      6927      6930      6932
      6929      6927      6930      6933      6930      6933      6936      6937
      6930      6933      6936      6938      6931      6930      6933      6934
      6931      6930      6933      6935      6931      6930      6933      6936
      6932      6930      6933      6934      6932      6930      6933      6935
      6932      6930      6933      6936      6933      6936      6938      6939
      6933      6936      6938      6940      6934      6933      6936      6937
      6934      6933      6936      6938      6935      6933      6936      6937
      6935      6933      6936      6938      6936      6938      6940      6941
      6936      6938      6940      6942      6936      6938      6940      6943
      6937      6936      6938      6939      6937      6936      6938      6940
      6938      6940      6943      6944      6938      6940      6943      6945
      6939      6938      6940      6941      6939      6938      6940      6942
      6939      6938      6940      6943      6940      6943      6945      6946
      6940      6943      6945      6947      6941      6940      6943      6944
      6941      6940      6943      6945      6942      6940      6943      6944
      6942      6940      6943      6945      6943      6945      6947      6948
      6943      6945      6947      6949      6943      6945      6947      6950
      6944      6943      6945      6946      6944      6943      6945      6947
      6945      6947      6950      6951      6945      6947      6950      6952
      6945      6947      6950      6953      6946      6945      6947      6948
      6946      6945      6947      6949      6946      6945      6947      6950
      6947      6950      6953      6954      6947      6950      6953      6955
      6947      6950      6953      6956      6948      6947      6950      6951
      6948      6947      6950      6952      6948      6947      6950      6953
      6949      6947      6950      6951      6949      6947      6950      6952
      6949      6947      6950      6953      6950      6953      6956      6957
      6950      6953      6956      6958      6950      6953      6956      6959
      6951      6950      6953      6954      6951      6950      6953      6955
      6951      6950      6953      6956      6952      6950      6953      6954
      6952      6950      6953      6955      6952      6950      6953      6956
      6953      6956      6959      6960      6953      6956      6959      6961
      6953      6956      6959      6962      6954      6953      6956      6957
      6954      6953      6956      6958      6954      6953      6956      6959
      6955      6953      6956      6957      6955      6953      6956      6958
      6955      6953      6956      6959      6957      6956      6959      6960
      6957      6956      6959      6961      6957      6956      6959      6962
      6958      6956      6959      6960      6958      6956      6959      6961
      6958      6956      6959      6962      6963      6966      6969      6970
      6963      6966      6969      6971      6963      6966      6969      6972
      6964      6963      6966      6967      6964      6963      6966      6968
      6964      6963      6966      6969      6965      6963      6966      6967
      6965      6963      6966      6968      6965      6963      6966      6969
      6966      6969      6972      6973      6966      6969      6972      6974
      6966      6969      6972      6975      6967      6966      6969      6970
      6967      6966      6969      6971      6967      6966      6969      6972
      6968      6966      6969      6970      6968      6966      6969      6971
      6968      6966      6969      6972      6969      6972      6975      6976
      6969      6972      6975      6977      6969      6972      6975      6978
      6970      6969      6972      6973      6970      6969      6972      6974
      6970      6969      6972      6975      6971      6969      6972      6973
      6971      6969      6972      6974      6971      6969      6972      6975
      6972      6975      6978      6979      6972      6975      6978      6980
      6972      6975      6978      6981      6973      6972      6975      6976
      6973      6972      6975      6977      6973      6972      6975      6978
      6974      6972      6975      6976      6974      6972      6975      6977
      6974      6972      6975      6978      6975      6978      6981      6982
      6975      6978      6981      6983      6975      6978      6981      6984
      6976      6975      6978      6979      6976      6975      6978      6980
      6976      6975      6978      6981      6977      6975      6978      6979
      6977      6975      6978      6980      6977      6975      6978      6981
      6978      6981      6984      6985      6978      6981      6984      6986
      6978      6981      6984      6987      6979      6978      6981      6982
      6979      6978      6981      6983      6979      6978      6981      6984
      6980      6978      6981      6982      6980      6978      6981      6983
      6980      6978      6981      6984      6981      6984      6987      6988
      6981      6984      6987      6989      6981      6984      6987      6990
      6982      6981      6984      6985      6982      6981      6984      6986
      6982      6981      6984      6987      6983      6981      6984      6985
      6983      6981      6984      6986      6983      6981      6984      6987
      6984      6987      6990      6991      6984      6987      6990      6992
      6984      6987      6990      6993      6985      6984      6987      6988
      6985      6984      6987      6989      6985      6984      6987      6990
      6986      6984      6987      6988      6986      6984      6987      6989
      6986      6984      6987      6990      6987      6990      6993      6994
      6987      6990      6993      6995      6987      6990      6993      6996
      6988      6987      6990      6991      6988      6987      6990      6992
      6988      6987      6990      6993      6989      6987      6990      6991
      6989      6987      6990      6992      6989      6987      6990      6993
      6990      6993      6996      6997      6990      6993      6996      6998
      6990      6993      6996      6999      6991      6990      6993      6994
      6991      6990      6993      6995      6991      6990      6993      6996
      6992      6990      6993      6994      6992      6990      6993      6995
      6992      6990      6993      6996      6993      6996      6999      7000
      6993      6996      6999      7001      6993      6996      6999      7002
      6994      6993      6996      6997      6994      6993      6996      6998
      6994      6993      6996      6999      6995      6993      6996      6997
      6995      6993      6996      6998      6995      6993      6996      6999
      6996      6999      7002      7003      6996      6999      7002      7004
      6996      6999      7002      7005      6997      6996      6999      7000
      6997      6996      6999      7001      6997      6996      6999      7002
      6998      6996      6999      7000      6998      6996      6999      7001
      6998      6996      6999      7002      6999      7002      7005      7006
      6999      7002      7005      7007      6999      7002      7005      7008
      7000      6999      7002      7003      7000      6999      7002      7004
      7000      6999      7002      7005      7001      6999      7002      7003
      7001      6999      7002      7004      7001      6999      7002      7005
      7002      7005      7008      7009      7002      7005      7008      7010
      7002      7005      7008      7011      7003      7002      7005      7006
      7003      7002      7005      7007      7003      7002      7005      7008
      7004      7002      7005      7006      7004      7002      7005      7007
      7004      7002      7005      7008      7006      7005      7008      7009
      7006      7005      7008      7010      7006      7005      7008      7011
      7007      7005      7008      7009      7007      7005      7008      7010
      7007      7005      7008      7011      7012      7016      7019      7020
      7012      7016      7019      7050      7012      7058      7055      7050
      7012      7058      7055      7056      7012      7058      7055      7057
      7013      7012      7014      7015      7013      7012      7016      7017
      7013      7012      7016      7018      7013      7012      7016      7019
      7013      7012      7058      7055      7013      7012      7058      7059
      7013      7012      7058      7060      7014      7012      7016      7017
      7014      7012      7016      7018      7014      7012      7016      7019
      7014      7012      7058      7055      7014      7012      7058      7059
      7014      7012      7058      7060      7015      7014      7012      7016
      7015      7014      7012      7058      7016      7012      7058      7055
      7016      7012      7058      7059      7016      7012      7058      7060
      7016      7019      7020      7021      7016      7019      7020      7022
      7016      7019      7050      7048      7016      7019      7050      7051
      7016      7019      7050      7055      7017      7016      7012      7058
      7017      7016      7019      7020      7017      7016      7019      7050
      7018      7016      7012      7058      7018      7016      7019      7020
      7018      7016      7019      7050      7019      7016      7012      7058
      7019      7020      7022      7023      7019      7020      7022      7024
      7019      7020      7022      7025      7019      7050      7048      7025
      7019      7050      7048      7045      7019      7050      7048      7049
      7019      7050      7051      7052      7019      7050      7051      7053
      7019      7050      7051      7054      7019      7050      7055      7056
      7019      7050      7055      7057      7019      7050      7055      7058
      7020      7019      7050      7048      7020      7019      7050      7051
      7020      7019      7050      7055      7020      7022      7025      7026
      7020      7022      7025      7027      7020      7022      7025      7048
      7021      7020      7019      7050      7021      7020      7022      7023
      7021      7020      7022      7024      7021      7020      7022      7025
      7022      7020      7019      7050      7022      7025      7027      7028
      7022      7025      7027      7029      7022      7025      7027      7037
      7022      7025      7048      7045      7022      7025      7048      7049
      7022      7025      7048      7050      7023      7022      7025      7026
      7023      7022      7025      7027      7023      7022      7025      7048
      7024      7022      7025      7026      7024      7022      7025      7027
      7024      7022      7025      7048      7025      7027      7029      7030
      7025      7027      7029      7031      7025      7027      7029      7032
      7025      7027      7037      7035      7025      7027      7037      7038
      7025      7027      7037      7042      7025      7048      7045      7042
      7025      7048      7045      7046      7025      7048      7045      7047
      7025      7048      7050      7051      7025      7048      7050      7055
      7026      7025      7027      7028      7026      7025      7027      7029
      7026      7025      7027      7037      7026      7025      7048      7045
      7026      7025      7048      7049      7026      7025      7048      7050
      7027      7025      7048      7045      7027      7025      7048      7049
      7027      7025      7048      7050      7027      7029      7032      7033
      7027      7029      7032      7034      7027      7029      7032      7035
      7027      7037      7035      7032      7027      7037      7035      7036
      7027      7037      7035      7061      7027      7037      7038      7039
      7027      7037      7038      7040      7027      7037      7038      7041
      7027      7037      7042      7043      7027      7037      7042      7044
      7027      7037      7042      7045      7028      7027      7025      7048
      7028      7027      7029      7030      7028      7027      7029      7031
      7028      7027      7029      7032      7028      7027      7037      7035
      7028      7027      7037      7038      7028      7027      7037      7042
      7029      7027      7025      7048      7029      7027      7037      7035
      7029      7027      7037      7038      7029      7027      7037      7042
      7029      7032      7035      7036      7029      7032      7035      7037
      7029      7032      7035      7061      7030      7029      7027      7037
      7030      7029      7032      7033      7030      7029      7032      7034
      7030      7029      7032      7035      7031      7029      7027      7037
      7031      7029      7032      7033      7031      7029      7032      7034
      7031      7029      7032      7035      7032      7029      7027      7037
      7032      7035      7037      7038      7032      7035      7037      7042
      7032      7035      7061      7062      7032      7035      7061      7063
      7032      7035      7061      7067      7033      7032      7035      7036
      7033      7032      7035      7037      7033      7032      7035      7061
      7034      7032      7035      7036      7034      7032      7035      7037
      7034      7032      7035      7061      7035      7037      7038      7039
      7035      7037      7038      7040      7035      7037      7038      7041
      7035      7037      7042      7043      7035      7037      7042      7044
      7035      7037      7042      7045      7035      7061      7063      7064
      7035      7061      7063      7065      7035      7061      7063      7066
      7035      7061      7067      7068      7035      7061      7067      7069
      7035      7061      7067      7070      7036      7035      7037      7038
      7036      7035      7037      7042      7036      7035      7061      7062
      7036      7035      7061      7063      7036      7035      7061      7067
      7037      7027      7025      7048      7037      7035      7061      7062
      7037      7035      7061      7063      7037      7035      7061      7067
      7037      7042      7045      7046      7037      7042      7045      7047
      7037      7042      7045      7048      7038      7037      7035      7061
      7038      7037      7042      7043      7038      7037      7042      7044
      7038      7037      7042      7045      7039      7038      7037      7042
      7040      7038      7037      7042      7041      7038      7037      7042
      7042      7037      7035      7061      7042      7045      7048      7049
      7042      7045      7048      7050      7043      7042      7045      7046
      7043      7042      7045      7047      7043      7042      7045      7048
      7044      7042      7045      7046      7044      7042      7045      7047
      7044      7042      7045      7048      7045      7048      7050      7051
      7045      7048      7050      7055      7046      7045      7048      7049
      7046      7045      7048      7050      7047      7045      7048      7049
      7047      7045      7048      7050      7048      7050      7051      7052
      7048      7050      7051      7053      7048      7050      7051      7054
      7048      7050      7055      7056      7048      7050      7055      7057
      7048      7050      7055      7058      7049      7048      7050      7051
      7049      7048      7050      7055      7050      7055      7058      7059
      7050      7055      7058      7060      7051      7050      7055      7056
      7051      7050      7055      7057      7051      7050      7055      7058
      7052      7051      7050      7055      7053      7051      7050      7055
      7054      7051      7050      7055      7056      7055      7058      7059
      7056      7055      7058      7060      7057      7055      7058      7059
      7057      7055      7058      7060      7061      7067      7070      7071
      7061      7067      7070      7072      7061      7067      7070      7073
      7062      7061      7063      7064      7062      7061      7063      7065
      7062      7061      7063      7066      7062      7061      7067      7068
      7062      7061      7067      7069      7062      7061      7067      7070
      7063      7061      7067      7068      7063      7061      7067      7069
      7063      7061      7067      7070      7064      7063      7061      7067
      7065      7063      7061      7067      7066      7063      7061      7067
      7067      7070      7073      7074      7067      7070      7073      7075
      7067      7070      7073      7076      7068      7067      7070      7071
      7068      7067      7070      7072      7068      7067      7070      7073
      7069      7067      7070      7071      7069      7067      7070      7072
      7069      7067      7070      7073      7070      7073      7076      7077
      7070      7073      7076      7078      7070      7073      7076      7082
      7071      7070      7073      7074      7071      7070      7073      7075
      7071      7070      7073      7076      7072      7070      7073      7074
      7072      7070      7073      7075      7072      7070      7073      7076
      7073      7076      7078      7079      7073      7076      7078      7080
      7073      7076      7078      7081      7073      7076      7082      7083
      7073      7076      7082      7084      7073      7076      7082      7085
      7074      7073      7076      7077      7074      7073      7076      7078
      7074      7073      7076      7082      7075      7073      7076      7077
      7075      7073      7076      7078      7075      7073      7076      7082
      7077      7076      7078      7079      7077      7076      7078      7080
      7077      7076      7078      7081      7077      7076      7082      7083
      7077      7076      7082      7084      7077      7076      7082      7085
      7078      7076      7082      7083      7078      7076      7082      7084
      7078      7076      7082      7085      7079      7078      7076      7082
      7080      7078      7076      7082      7081      7078      7076      7082
      7086      7090      7092      7093      7086      7090      7094      7095
      7086      7090      7094      7096      7086      7090      7094      7098
      7086      7106      7102      7098      7086      7106      7102      7103
      7086      7106      7102      7104      7086      7106      7111      7108
      7087      7086      7088      7089      7087      7086      7090      7091
      7087      7086      7090      7092      7087      7086      7090      7094
      7087      7086      7106      7102      7087      7086      7106      7107
      7087      7086      7106      7111      7088      7086      7090      7091
      7088      7086      7090      7092      7088      7086      7090      7094
      7088      7086      7106      7102      7088      7086      7106      7107
      7088      7086      7106      7111      7089      7088      7086      7090
      7089      7088      7086      7106      7090      7086      7106      7102
      7090      7086      7106      7107      7090      7086      7106      7111
      7090      7094      7096      7097      7090      7094      7098      7099
      7090      7094      7098      7100      7090      7094      7098      7102
      7091      7090      7086      7106      7091      7090      7092      7093
      7091      7090      7094      7095      7091      7090      7094      7096
      7091      7090      7094      7098      7092      7090      7086      7106
      7092      7090      7094      7095      7092      7090      7094      7096
      7092      7090      7094      7098      7093      7092      7090      7094
      7094      7090      7086      7106      7094      7098      7100      7101
      7094      7098      7102      7103      7094      7098      7102      7104
      7094      7098      7102      7106      7095      7094      7096      7097
      7095      7094      7098      7099      7095      7094      7098      7100
      7095      7094      7098      7102      7096      7094      7098      7099
      7096      7094      7098      7100      7096      7094      7098      7102
      7097      7096      7094      7098      7098      7102      7104      7105
      7098      7102      7106      7107      7098      7102      7106      7111
      7099      7098      7100      7101      7099      7098      7102      7103
      7099      7098      7102      7104      7099      7098      7102      7106
      7100      7098      7102      7103      7100      7098      7102      7104
      7100      7098      7102      7106      7101      7100      7098      7102
      7102      7106      7111      7108      7103      7102      7104      7105
      7103      7102      7106      7107      7103      7102      7106      7111
      7104      7102      7106      7107      7104      7102      7106      7111
      7105      7104      7102      7106      7106      7111      7108      7109
      7106      7111      7108      7110      7106      7111      7108      7112
      7107      7106      7111      7108      7108      7112      7113      7114
      7108      7112      7113      7115      7108      7112      7113      7116
      7109      7108      7112      7113      7110      7108      7112      7113
      7111      7108      7112      7113      7112      7113      7116      7117
      7112      7113      7116      7118      7112      7113      7116      7124
      7113      7116      7118      7119      7113      7116      7124      7125
      7113      7116      7124      7126      7113      7116      7124      7127
      7114      7113      7116      7117      7114      7113      7116      7118
      7114      7113      7116      7124      7115      7113      7116      7117
      7115      7113      7116      7118      7115      7113      7116      7124
      7116      7118      7119      7120      7116      7118      7119      7121
      7116      7124      7127      7128      7117      7116      7118      7119
      7117      7116      7124      7125      7117      7116      7124      7126
      7117      7116      7124      7127      7118      7116      7124      7125
      7118      7116      7124      7126      7118      7116      7124      7127
      7118      7119      7121      7122      7118      7119      7121      7123
      7118      7119      7121      7133      7119      7118      7116      7124
      7119      7121      7133      7134      7119      7121      7133      7135
      7119      7121      7133      7136      7120      7119      7121      7122
      7120      7119      7121      7123      7120      7119      7121      7133
      7121      7133      7136      7137      7121      7133      7136      7138
      7121      7133      7136      7139      7122      7121      7133      7134
      7122      7121      7133      7135      7122      7121      7133      7136
      7123      7121      7133      7134      7123      7121      7133      7135
      7123      7121      7133      7136      7124      7127      7128      7129
      7124      7127      7128      7130      7125      7124      7127      7128
      7126      7124      7127      7128      7127      7128      7130      7131
      7127      7128      7130      7132      7127      7128      7130      7180
      7128      7130      7180      7181      7128      7130      7180      7182
      7128      7130      7180      7183      7129      7128      7130      7131
      7129      7128      7130      7132      7129      7128      7130      7180
      7130      7180      7183      7184      7130      7180      7183      7185
      7130      7180      7183      7186      7131      7130      7180      7181
      7131      7130      7180      7182      7131      7130      7180      7183
      7132      7130      7180      7181      7132      7130      7180      7182
      7132      7130      7180      7183      7133      7136      7139      7140
      7133      7136      7139      7141      7134      7133      7136      7137
      7134      7133      7136      7138      7134      7133      7136      7139
      7135      7133      7136      7137      7135      7133      7136      7138
      7135      7133      7136      7139      7136      7139      7141      7142
      7136      7139      7141      7143      7137      7136      7139      7140
      7137      7136      7139      7141      7138      7136      7139      7140
      7138      7136      7139      7141      7139      7141      7143      7144
      7139      7141      7143      7145      7139      7141      7143      7146
      7140      7139      7141      7142      7140      7139      7141      7143
      7141      7143      7146      7147      7141      7143      7146      7148
      7142      7141      7143      7144      7142      7141      7143      7145
      7142      7141      7143      7146      7143      7146      7148      7149
      7143      7146      7148      7150      7144      7143      7146      7147
      7144      7143      7146      7148      7145      7143      7146      7147
      7145      7143      7146      7148      7146      7148      7150      7151
      7146      7148      7150      7152      7146      7148      7150      7153
      7147      7146      7148      7149      7147      7146      7148      7150
      7148      7150      7153      7154      7148      7150      7153      7155
      7149      7148      7150      7151      7149      7148      7150      7152
      7149      7148      7150      7153      7150      7153      7155      7156
      7150      7153      7155      7157      7151      7150      7153      7154
      7151      7150      7153      7155      7152      7150      7153      7154
      7152      7150      7153      7155      7153      7155      7157      7158
      7153      7155      7157      7159      7153      7155      7157      7160
      7154      7153      7155      7156      7154      7153      7155      7157
      7155      7157      7160      7161      7155      7157      7160      7162
      7156      7155      7157      7158      7156      7155      7157      7159
      7156      7155      7157      7160      7157      7160      7162      7163
      7157      7160      7162      7164      7158      7157      7160      7161
      7158      7157      7160      7162      7159      7157      7160      7161
      7159      7157      7160      7162      7160      7162      7164      7165
      7160      7162      7164      7166      7160      7162      7164      7167
      7161      7160      7162      7163      7161      7160      7162      7164
      7162      7164      7167      7168      7162      7164      7167      7169
      7162      7164      7167      7170      7163      7162      7164      7165
      7163      7162      7164      7166      7163      7162      7164      7167
      7164      7167      7170      7171      7164      7167      7170      7172
      7164      7167      7170      7173      7165      7164      7167      7168
      7165      7164      7167      7169      7165      7164      7167      7170
      7166      7164      7167      7168      7166      7164      7167      7169
      7166      7164      7167      7170      7167      7170      7173      7174
      7167      7170      7173      7175      7167      7170      7173      7176
      7168      7167      7170      7171      7168      7167      7170      7172
      7168      7167      7170      7173      7169      7167      7170      7171
      7169      7167      7170      7172      7169      7167      7170      7173
      7170      7173      7176      7177      7170      7173      7176      7178
      7170      7173      7176      7179      7171      7170      7173      7174
      7171      7170      7173      7175      7171      7170      7173      7176
      7172      7170      7173      7174      7172      7170      7173      7175
      7172      7170      7173      7176      7174      7173      7176      7177
      7174      7173      7176      7178      7174      7173      7176      7179
      7175      7173      7176      7177      7175      7173      7176      7178
      7175      7173      7176      7179      7180      7183      7186      7187
      7180      7183      7186      7188      7180      7183      7186      7189
      7181      7180      7183      7184      7181      7180      7183      7185
      7181      7180      7183      7186      7182      7180      7183      7184
      7182      7180      7183      7185      7182      7180      7183      7186
      7183      7186      7189      7190      7183      7186      7189      7191
      7183      7186      7189      7192      7184      7183      7186      7187
      7184      7183      7186      7188      7184      7183      7186      7189
      7185      7183      7186      7187      7185      7183      7186      7188
      7185      7183      7186      7189      7186      7189      7192      7193
      7186      7189      7192      7194      7186      7189      7192      7195
      7187      7186      7189      7190      7187      7186      7189      7191
      7187      7186      7189      7192      7188      7186      7189      7190
      7188      7186      7189      7191      7188      7186      7189      7192
      7189      7192      7195      7196      7189      7192      7195      7197
      7189      7192      7195      7198      7190      7189      7192      7193
      7190      7189      7192      7194      7190      7189      7192      7195
      7191      7189      7192      7193      7191      7189      7192      7194
      7191      7189      7192      7195      7192      7195      7198      7199
      7192      7195      7198      7200      7192      7195      7198      7201
      7193      7192      7195      7196      7193      7192      7195      7197
      7193      7192      7195      7198      7194      7192      7195      7196
      7194      7192      7195      7197      7194      7192      7195      7198
      7195      7198      7201      7202      7195      7198      7201      7203
      7195      7198      7201      7204      7196      7195      7198      7199
      7196      7195      7198      7200      7196      7195      7198      7201
      7197      7195      7198      7199      7197      7195      7198      7200
      7197      7195      7198      7201      7198      7201      7204      7205
      7198      7201      7204      7206      7198      7201      7204      7207
      7199      7198      7201      7202      7199      7198      7201      7203
      7199      7198      7201      7204      7200      7198      7201      7202
      7200      7198      7201      7203      7200      7198      7201      7204
      7201      7204      7207      7208      7201      7204      7207      7209
      7201      7204      7207      7210      7202      7201      7204      7205
      7202      7201      7204      7206      7202      7201      7204      7207
      7203      7201      7204      7205      7203      7201      7204      7206
      7203      7201      7204      7207      7204      7207      7210      7211
      7204      7207      7210      7212      7204      7207      7210      7213
      7205      7204      7207      7208      7205      7204      7207      7209
      7205      7204      7207      7210      7206      7204      7207      7208
      7206      7204      7207      7209      7206      7204      7207      7210
      7207      7210      7213      7214      7207      7210      7213      7215
      7207      7210      7213      7216      7208      7207      7210      7211
      7208      7207      7210      7212      7208      7207      7210      7213
      7209      7207      7210      7211      7209      7207      7210      7212
      7209      7207      7210      7213      7210      7213      7216      7217
      7210      7213      7216      7218      7210      7213      7216      7219
      7211      7210      7213      7214      7211      7210      7213      7215
      7211      7210      7213      7216      7212      7210      7213      7214
      7212      7210      7213      7215      7212      7210      7213      7216
      7213      7216      7219      7220      7213      7216      7219      7221
      7213      7216      7219      7222      7214      7213      7216      7217
      7214      7213      7216      7218      7214      7213      7216      7219
      7215      7213      7216      7217      7215      7213      7216      7218
      7215      7213      7216      7219      7216      7219      7222      7223
      7216      7219      7222      7224      7216      7219      7222      7225
      7217      7216      7219      7220      7217      7216      7219      7221
      7217      7216      7219      7222      7218      7216      7219      7220
      7218      7216      7219      7221      7218      7216      7219      7222
      7219      7222      7225      7226      7219      7222      7225      7227
      7219      7222      7225      7228      7220      7219      7222      7223
      7220      7219      7222      7224      7220      7219      7222      7225
      7221      7219      7222      7223      7221      7219      7222      7224
      7221      7219      7222      7225      7223      7222      7225      7226
      7223      7222      7225      7227      7223      7222      7225      7228
      7224      7222      7225      7226      7224      7222      7225      7227
      7224      7222      7225      7228      7229      7233      7236      7237
      7229      7233      7236      7267      7229      7275      7272      7267
      7229      7275      7272      7273      7229      7275      7272      7274
      7230      7229      7231      7232      7230      7229      7233      7234
      7230      7229      7233      7235      7230      7229      7233      7236
      7230      7229      7275      7272      7230      7229      7275      7276
      7230      7229      7275      7277      7231      7229      7233      7234
      7231      7229      7233      7235      7231      7229      7233      7236
      7231      7229      7275      7272      7231      7229      7275      7276
      7231      7229      7275      7277      7232      7231      7229      7233
      7232      7231      7229      7275      7233      7229      7275      7272
      7233      7229      7275      7276      7233      7229      7275      7277
      7233      7236      7237      7238      7233      7236      7237      7239
      7233      7236      7267      7265      7233      7236      7267      7268
      7233      7236      7267      7272      7234      7233      7229      7275
      7234      7233      7236      7237      7234      7233      7236      7267
      7235      7233      7229      7275      7235      7233      7236      7237
      7235      7233      7236      7267      7236      7233      7229      7275
      7236      7237      7239      7240      7236      7237      7239      7241
      7236      7237      7239      7242      7236      7267      7265      7242
      7236      7267      7265      7262      7236      7267      7265      7266
      7236      7267      7268      7269      7236      7267      7268      7270
      7236      7267      7268      7271      7236      7267      7272      7273
      7236      7267      7272      7274      7236      7267      7272      7275
      7237      7236      7267      7265      7237      7236      7267      7268
      7237      7236      7267      7272      7237      7239      7242      7243
      7237      7239      7242      7244      7237      7239      7242      7265
      7238      7237      7236      7267      7238      7237      7239      7240
      7238      7237      7239      7241      7238      7237      7239      7242
      7239      7237      7236      7267      7239      7242      7244      7245
      7239      7242      7244      7246      7239      7242      7244      7254
      7239      7242      7265      7262      7239      7242      7265      7266
      7239      7242      7265      7267      7240      7239      7242      7243
      7240      7239      7242      7244      7240      7239      7242      7265
      7241      7239      7242      7243      7241      7239      7242      7244
      7241      7239      7242      7265      7242      7244      7246      7247
      7242      7244      7246      7248      7242      7244      7246      7249
      7242      7244      7254      7252      7242      7244      7254      7255
      7242      7244      7254      7259      7242      7265      7262      7259
      7242      7265      7262      7263      7242      7265      7262      7264
      7242      7265      7267      7268      7242      7265      7267      7272
      7243      7242      7244      7245      7243      7242      7244      7246
      7243      7242      7244      7254      7243      7242      7265      7262
      7243      7242      7265      7266      7243      7242      7265      7267
      7244      7242      7265      7262      7244      7242      7265      7266
      7244      7242      7265      7267      7244      7246      7249      7250
      7244      7246      7249      7251      7244      7246      7249      7252
      7244      7254      7252      7249      7244      7254      7252      7253
      7244      7254      7252      7278      7244      7254      7255      7256
      7244      7254      7255      7257      7244      7254      7255      7258
      7244      7254      7259      7260      7244      7254      7259      7261
      7244      7254      7259      7262      7245      7244      7242      7265
      7245      7244      7246      7247      7245      7244      7246      7248
      7245      7244      7246      7249      7245      7244      7254      7252
      7245      7244      7254      7255      7245      7244      7254      7259
      7246      7244      7242      7265      7246      7244      7254      7252
      7246      7244      7254      7255      7246      7244      7254      7259
      7246      7249      7252      7253      7246      7249      7252      7254
      7246      7249      7252      7278      7247      7246      7244      7254
      7247      7246      7249      7250      7247      7246      7249      7251
      7247      7246      7249      7252      7248      7246      7244      7254
      7248      7246      7249      7250      7248      7246      7249      7251
      7248      7246      7249      7252      7249      7246      7244      7254
      7249      7252      7254      7255      7249      7252      7254      7259
      7249      7252      7278      7279      7249      7252      7278      7280
      7249      7252      7278      7284      7250      7249      7252      7253
      7250      7249      7252      7254      7250      7249      7252      7278
      7251      7249      7252      7253      7251      7249      7252      7254
      7251      7249      7252      7278      7252      7254      7255      7256
      7252      7254      7255      7257      7252      7254      7255      7258
      7252      7254      7259      7260      7252      7254      7259      7261
      7252      7254      7259      7262      7252      7278      7280      7281
      7252      7278      7280      7282      7252      7278      7280      7283
      7252      7278      7284      7285      7252      7278      7284      7286
      7252      7278      7284      7287      7253      7252      7254      7255
      7253      7252      7254      7259      7253      7252      7278      7279
      7253      7252      7278      7280      7253      7252      7278      7284
      7254      7244      7242      7265      7254      7252      7278      7279
      7254      7252      7278      7280      7254      7252      7278      7284
      7254      7259      7262      7263      7254      7259      7262      7264
      7254      7259      7262      7265      7255      7254      7252      7278
      7255      7254      7259      7260      7255      7254      7259      7261
      7255      7254      7259      7262      7256      7255      7254      7259
      7257      7255      7254      7259      7258      7255      7254      7259
      7259      7254      7252      7278      7259      7262      7265      7266
      7259      7262      7265      7267      7260      7259      7262      7263
      7260      7259      7262      7264      7260      7259      7262      7265
      7261      7259      7262      7263      7261      7259      7262      7264
      7261      7259      7262      7265      7262      7265      7267      7268
      7262      7265      7267      7272      7263      7262      7265      7266
      7263      7262      7265      7267      7264      7262      7265      7266
      7264      7262      7265      7267      7265      7267      7268      7269
      7265      7267      7268      7270      7265      7267      7268      7271
      7265      7267      7272      7273      7265      7267      7272      7274
      7265      7267      7272      7275      7266      7265      7267      7268
      7266      7265      7267      7272      7267      7272      7275      7276
      7267      7272      7275      7277      7268      7267      7272      7273
      7268      7267      7272      7274      7268      7267      7272      7275
      7269      7268      7267      7272      7270      7268      7267      7272
      7271      7268      7267      7272      7273      7272      7275      7276
      7273      7272      7275      7277      7274      7272      7275      7276
      7274      7272      7275      7277      7278      7284      7287      7288
      7278      7284      7287      7289      7278      7284      7287      7290
      7279      7278      7280      7281      7279      7278      7280      7282
      7279      7278      7280      7283      7279      7278      7284      7285
      7279      7278      7284      7286      7279      7278      7284      7287
      7280      7278      7284      7285      7280      7278      7284      7286
      7280      7278      7284      7287      7281      7280      7278      7284
      7282      7280      7278      7284      7283      7280      7278      7284
      7284      7287      7290      7291      7284      7287      7290      7292
      7284      7287      7290      7293      7285      7284      7287      7288
      7285      7284      7287      7289      7285      7284      7287      7290
      7286      7284      7287      7288      7286      7284      7287      7289
      7286      7284      7287      7290      7287      7290      7293      7294
      7287      7290      7293      7295      7287      7290      7293      7299
      7288      7287      7290      7291      7288      7287      7290      7292
      7288      7287      7290      7293      7289      7287      7290      7291
      7289      7287      7290      7292      7289      7287      7290      7293
      7290      7293      7295      7296      7290      7293      7295      7297
      7290      7293      7295      7298      7290      7293      7299      7300
      7290      7293      7299      7301      7290      7293      7299      7302
      7291      7290      7293      7294      7291      7290      7293      7295
      7291      7290      7293      7299      7292      7290      7293      7294
      7292      7290      7293      7295      7292      7290      7293      7299
      7294      7293      7295      7296      7294      7293      7295      7297
      7294      7293      7295      7298      7294      7293      7299      7300
      7294      7293      7299      7301      7294      7293      7299      7302
      7295      7293      7299      7300      7295      7293      7299      7301
      7295      7293      7299      7302      7296      7295      7293      7299
      7297      7295      7293      7299      7298      7295      7293      7299
      7303      7316      7319      7320      7303      7316      7319      7321
      7303      7316      7319      7325      7304      7303      7308      7309
      7304      7303      7308      7310      7304      7303      7308      7311
      7304      7303      7312      7313      7304      7303      7312      7314
      7304      7303      7312      7315      7304      7303      7316      7317
      7304      7303      7316      7318      7304      7303      7316      7319
      7305      7304      7303      7308      7305      7304      7303      7312
      7305      7304      7303      7316      7306      7304      7303      7308
      7306      7304      7303      7312      7306      7304      7303      7316
      7307      7304      7303      7308      7307      7304      7303      7312
      7307      7304      7303      7316      7308      7303      7312      7313
      7308      7303      7312      7314      7308      7303      7312      7315
      7308      7303      7316      7317      7308      7303      7316      7318
      7308      7303      7316      7319      7309      7308      7303      7312
      7309      7308      7303      7316      7310      7308      7303      7312
      7310      7308      7303      7316      7311      7308      7303      7312
      7311      7308      7303      7316      7312      7303      7316      7317
      7312      7303      7316      7318      7312      7303      7316      7319
      7313      7312      7303      7316      7314      7312      7303      7316
      7315      7312      7303      7316      7316      7319      7325      7322
      7317      7316      7319      7320      7317      7316      7319      7321
      7317      7316      7319      7325      7318      7316      7319      7320
      7318      7316      7319      7321      7318      7316      7319      7325
      7319      7325      7322      7323      7319      7325      7322      7324
      7319      7325      7322      7326      7320      7319      7325      7322
      7321      7319      7325      7322      7322      7326      7327      7328
      7322      7326      7327      7329      7322      7326      7327      7330
      7323      7322      7326      7327      7324      7322      7326      7327
      7325      7322      7326      7327      7326      7327      7330      7331
      7326      7327      7330      7332      7326      7327      7330      7338
      7327      7330      7332      7333      7327      7330      7338      7339
      7327      7330      7338      7340      7327      7330      7338      7341
      7328      7327      7330      7331      7328      7327      7330      7332
      7328      7327      7330      7338      7329      7327      7330      7331
      7329      7327      7330      7332      7329      7327      7330      7338
      7330      7332      7333      7334      7330      7332      7333      7335
      7330      7338      7341      7342      7331      7330      7332      7333
      7331      7330      7338      7339      7331      7330      7338      7340
      7331      7330      7338      7341      7332      7330      7338      7339
      7332      7330      7338      7340      7332      7330      7338      7341
      7332      7333      7335      7336      7332      7333      7335      7337
      7332      7333      7335      7347      7333      7332      7330      7338
      7333      7335      7347      7348      7333      7335      7347      7349
      7333      7335      7347      7350      7334      7333      7335      7336
      7334      7333      7335      7337      7334      7333      7335      7347
      7335      7347      7350      7351      7335      7347      7350      7352
      7335      7347      7350      7353      7336      7335      7347      7348
      7336      7335      7347      7349      7336      7335      7347      7350
      7337      7335      7347      7348      7337      7335      7347      7349
      7337      7335      7347      7350      7338      7341      7342      7343
      7338      7341      7342      7344      7339      7338      7341      7342
      7340      7338      7341      7342      7341      7342      7344      7345
      7341      7342      7344      7346      7341      7342      7344      7392
      7342      7344      7392      7393      7342      7344      7392      7394
      7342      7344      7392      7395      7343      7342      7344      7345
      7343      7342      7344      7346      7343      7342      7344      7392
      7344      7392      7395      7396      7344      7392      7395      7397
      7344      7392      7395      7398      7345      7344      7392      7393
      7345      7344      7392      7394      7345      7344      7392      7395
      7346      7344      7392      7393      7346      7344      7392      7394
      7346      7344      7392      7395      7347      7350      7353      7354
      7347      7350      7353      7355      7347      7350      7353      7356
      7348      7347      7350      7351      7348      7347      7350      7352
      7348      7347      7350      7353      7349      7347      7350      7351
      7349      7347      7350      7352      7349      7347      7350      7353
      7350      7353      7356      7357      7350      7353      7356      7358
      7350      7353      7356      7359      7351      7350      7353      7354
      7351      7350      7353      7355      7351      7350      7353      7356
      7352      7350      7353      7354      7352      7350      7353      7355
      7352      7350      7353      7356      7353      7356      7359      7360
      7353      7356      7359      7361      7353      7356      7359      7362
      7354      7353      7356      7357      7354      7353      7356      7358
      7354      7353      7356      7359      7355      7353      7356      7357
      7355      7353      7356      7358      7355      7353      7356      7359
      7356      7359      7362      7363      7356      7359      7362      7364
      7356      7359      7362      7365      7357      7356      7359      7360
      7357      7356      7359      7361      7357      7356      7359      7362
      7358      7356      7359      7360      7358      7356      7359      7361
      7358      7356      7359      7362      7359      7362      7365      7366
      7359      7362      7365      7367      7360      7359      7362      7363
      7360      7359      7362      7364      7360      7359      7362      7365
      7361      7359      7362      7363      7361      7359      7362      7364
      7361      7359      7362      7365      7362      7365      7367      7368
      7362      7365      7367      7369      7363      7362      7365      7366
      7363      7362      7365      7367      7364      7362      7365      7366
      7364      7362      7365      7367      7365      7367      7369      7370
      7365      7367      7369      7371      7365      7367      7369      7372
      7366      7365      7367      7368      7366      7365      7367      7369
      7367      7369      7372      7373      7367      7369      7372      7374
      7368      7367      7369      7370      7368      7367      7369      7371
      7368      7367      7369      7372      7369      7372      7374      7375
      7369      7372      7374      7376      7370      7369      7372      7373
      7370      7369      7372      7374      7371      7369      7372      7373
      7371      7369      7372      7374      7372      7374      7376      7377
      7372      7374      7376      7378      7372      7374      7376      7379
      7373      7372      7374      7375      7373      7372      7374      7376
      7374      7376      7379      7380      7374      7376      7379      7381
      7374      7376      7379      7382      7375      7374      7376      7377
      7375      7374      7376      7378      7375      7374      7376      7379
      7376      7379      7382      7383      7376      7379      7382      7384
      7376      7379      7382      7385      7377      7376      7379      7380
      7377      7376      7379      7381      7377      7376      7379      7382
      7378      7376      7379      7380      7378      7376      7379      7381
      7378      7376      7379      7382      7379      7382      7385      7386
      7379      7382      7385      7387      7379      7382      7385      7388
      7380      7379      7382      7383      7380      7379      7382      7384
      7380      7379      7382      7385      7381      7379      7382      7383
      7381      7379      7382      7384      7381      7379      7382      7385
      7382      7385      7388      7389      7382      7385      7388      7390
      7382      7385      7388      7391      7383      7382      7385      7386
      7383      7382      7385      7387      7383      7382      7385      7388
      7384      7382      7385      7386      7384      7382      7385      7387
      7384      7382      7385      7388      7386      7385      7388      7389
      7386      7385      7388      7390      7386      7385      7388      7391
      7387      7385      7388      7389      7387      7385      7388      7390
      7387      7385      7388      7391      7392      7395      7398      7399
      7392      7395      7398      7400      7392      7395      7398      7401
      7393      7392      7395      7396      7393      7392      7395      7397
      7393      7392      7395      7398      7394      7392      7395      7396
      7394      7392      7395      7397      7394      7392      7395      7398
      7395      7398      7401      7402      7395      7398      7401      7403
      7395      7398      7401      7404      7396      7395      7398      7399
      7396      7395      7398      7400      7396      7395      7398      7401
      7397      7395      7398      7399      7397      7395      7398      7400
      7397      7395      7398      7401      7398      7401      7404      7405
      7398      7401      7404      7406      7398      7401      7404      7407
      7399      7398      7401      7402      7399      7398      7401      7403
      7399      7398      7401      7404      7400      7398      7401      7402
      7400      7398      7401      7403      7400      7398      7401      7404
      7401      7404      7407      7408      7401      7404      7407      7409
      7401      7404      7407      7410      7402      7401      7404      7405
      7402      7401      7404      7406      7402      7401      7404      7407
      7403      7401      7404      7405      7403      7401      7404      7406
      7403      7401      7404      7407      7404      7407      7410      7411
      7404      7407      7410      7412      7404      7407      7410      7413
      7405      7404      7407      7408      7405      7404      7407      7409
      7405      7404      7407      7410      7406      7404      7407      7408
      7406      7404      7407      7409      7406      7404      7407      7410
      7407      7410      7413      7414      7407      7410      7413      7415
      7407      7410      7413      7416      7408      7407      7410      7411
      7408      7407      7410      7412      7408      7407      7410      7413
      7409      7407      7410      7411      7409      7407      7410      7412
      7409      7407      7410      7413      7410      7413      7416      7417
      7410      7413      7416      7418      7410      7413      7416      7419
      7411      7410      7413      7414      7411      7410      7413      7415
      7411      7410      7413      7416      7412      7410      7413      7414
      7412      7410      7413      7415      7412      7410      7413      7416
      7413      7416      7419      7420      7413      7416      7419      7421
      7413      7416      7419      7422      7414      7413      7416      7417
      7414      7413      7416      7418      7414      7413      7416      7419
      7415      7413      7416      7417      7415      7413      7416      7418
      7415      7413      7416      7419      7416      7419      7422      7423
      7416      7419      7422      7424      7416      7419      7422      7425
      7417      7416      7419      7420      7417      7416      7419      7421
      7417      7416      7419      7422      7418      7416      7419      7420
      7418      7416      7419      7421      7418      7416      7419      7422
      7419      7422      7425      7426      7419      7422      7425      7427
      7419      7422      7425      7428      7420      7419      7422      7423
      7420      7419      7422      7424      7420      7419      7422      7425
      7421      7419      7422      7423      7421      7419      7422      7424
      7421      7419      7422      7425      7422      7425      7428      7429
      7422      7425      7428      7430      7422      7425      7428      7431
      7423      7422      7425      7426      7423      7422      7425      7427
      7423      7422      7425      7428      7424      7422      7425      7426
      7424      7422      7425      7427      7424      7422      7425      7428
      7425      7428      7431      7432      7425      7428      7431      7433
      7425      7428      7431      7434      7426      7425      7428      7429
      7426      7425      7428      7430      7426      7425      7428      7431
      7427      7425      7428      7429      7427      7425      7428      7430
      7427      7425      7428      7431      7428      7431      7434      7435
      7428      7431      7434      7436      7428      7431      7434      7437
      7429      7428      7431      7432      7429      7428      7431      7433
      7429      7428      7431      7434      7430      7428      7431      7432
      7430      7428      7431      7433      7430      7428      7431      7434
      7431      7434      7437      7438      7431      7434      7437      7439
      7431      7434      7437      7440      7432      7431      7434      7435
      7432      7431      7434      7436      7432      7431      7434      7437
      7433      7431      7434      7435      7433      7431      7434      7436
      7433      7431      7434      7437      7435      7434      7437      7438
      7435      7434      7437      7439      7435      7434      7437      7440
      7436      7434      7437      7438      7436      7434      7437      7439
      7436      7434      7437      7440      7441      7445      7448      7449
      7441      7445      7448      7450      7441      7445      7448      7454
      7442      7441      7445      7446      7442      7441      7445      7447
      7442      7441      7445      7448      7443      7441      7445      7446
      7443      7441      7445      7447      7443      7441      7445      7448
      7444      7441      7445      7446      7444      7441      7445      7447
      7444      7441      7445      7448      7445      7448      7454      7451
      7446      7445      7448      7449      7446      7445      7448      7450
      7446      7445      7448      7454      7447      7445      7448      7449
      7447      7445      7448      7450      7447      7445      7448      7454
      7448      7454      7451      7452      7448      7454      7451      7453
      7448      7454      7451      7455      7449      7448      7454      7451
      7450      7448      7454      7451      7451      7455      7456      7457
      7451      7455      7456      7458      7451      7455      7456      7459
      7452      7451      7455      7456      7453      7451      7455      7456
      7454      7451      7455      7456      7455      7456      7459      7460
      7455      7456      7459      7461      7455      7456      7459      7467
      7456      7459      7461      7462      7456      7459      7467      7468
      7456      7459      7467      7469      7456      7459      7467      7470
      7457      7456      7459      7460      7457      7456      7459      7461
      7457      7456      7459      7467      7458      7456      7459      7460
      7458      7456      7459      7461      7458      7456      7459      7467
      7459      7461      7462      7463      7459      7461      7462      7464
      7459      7467      7470      7471      7460      7459      7461      7462
      7460      7459      7467      7468      7460      7459      7467      7469
      7460      7459      7467      7470      7461      7459      7467      7468
      7461      7459      7467      7469      7461      7459      7467      7470
      7461      7462      7464      7465      7461      7462      7464      7466
      7461      7462      7464      7476      7462      7461      7459      7467
      7462      7464      7476      7477      7462      7464      7476      7478
      7462      7464      7476      7479      7463      7462      7464      7465
      7463      7462      7464      7466      7463      7462      7464      7476
      7464      7476      7479      7480      7464      7476      7479      7481
      7464      7476      7479      7482      7465      7464      7476      7477
      7465      7464      7476      7478      7465      7464      7476      7479
      7466      7464      7476      7477      7466      7464      7476      7478
      7466      7464      7476      7479      7467      7470      7471      7472
      7467      7470      7471      7473      7468      7467      7470      7471
      7469      7467      7470      7471      7470      7471      7473      7474
      7470      7471      7473      7475      7470      7471      7473      7523
      7471      7473      7523      7524      7471      7473      7523      7525
      7471      7473      7523      7526      7472      7471      7473      7474
      7472      7471      7473      7475      7472      7471      7473      7523
      7473      7523      7526      7527      7473      7523      7526      7528
      7473      7523      7526      7529      7474      7473      7523      7524
      7474      7473      7523      7525      7474      7473      7523      7526
      7475      7473      7523      7524      7475      7473      7523      7525
      7475      7473      7523      7526      7476      7479      7482      7483
      7476      7479      7482      7484      7477      7476      7479      7480
      7477      7476      7479      7481      7477      7476      7479      7482
      7478      7476      7479      7480      7478      7476      7479      7481
      7478      7476      7479      7482      7479      7482      7484      7485
      7479      7482      7484      7486      7480      7479      7482      7483
      7480      7479      7482      7484      7481      7479      7482      7483
      7481      7479      7482      7484      7482      7484      7486      7487
      7482      7484      7486      7488      7482      7484      7486      7489
      7483      7482      7484      7485      7483      7482      7484      7486
      7484      7486      7489      7490      7484      7486      7489      7491
      7485      7484      7486      7487      7485      7484      7486      7488
      7485      7484      7486      7489      7486      7489      7491      7492
      7486      7489      7491      7493      7487      7486      7489      7490
      7487      7486      7489      7491      7488      7486      7489      7490
      7488      7486      7489      7491      7489      7491      7493      7494
      7489      7491      7493      7495      7489      7491      7493      7496
      7490      7489      7491      7492      7490      7489      7491      7493
      7491      7493      7496      7497      7491      7493      7496      7498
      7492      7491      7493      7494      7492      7491      7493      7495
      7492      7491      7493      7496      7493      7496      7498      7499
      7493      7496      7498      7500      7494      7493      7496      7497
      7494      7493      7496      7498      7495      7493      7496      7497
      7495      7493      7496      7498      7496      7498      7500      7501
      7496      7498      7500      7502      7496      7498      7500      7503
      7497      7496      7498      7499      7497      7496      7498      7500
      7498      7500      7503      7504      7498      7500      7503      7505
      7499      7498      7500      7501      7499      7498      7500      7502
      7499      7498      7500      7503      7500      7503      7505      7506
      7500      7503      7505      7507      7501      7500      7503      7504
      7501      7500      7503      7505      7502      7500      7503      7504
      7502      7500      7503      7505      7503      7505      7507      7508
      7503      7505      7507      7509      7503      7505      7507      7510
      7504      7503      7505      7506      7504      7503      7505      7507
      7505      7507      7510      7511      7505      7507      7510      7512
      7505      7507      7510      7513      7506      7505      7507      7508
      7506      7505      7507      7509      7506      7505      7507      7510
      7507      7510      7513      7514      7507      7510      7513      7515
      7507      7510      7513      7516      7508      7507      7510      7511
      7508      7507      7510      7512      7508      7507      7510      7513
      7509      7507      7510      7511      7509      7507      7510      7512
      7509      7507      7510      7513      7510      7513      7516      7517
      7510      7513      7516      7518      7510      7513      7516      7519
      7511      7510      7513      7514      7511      7510      7513      7515
      7511      7510      7513      7516      7512      7510      7513      7514
      7512      7510      7513      7515      7512      7510      7513      7516
      7513      7516      7519      7520      7513      7516      7519      7521
      7513      7516      7519      7522      7514      7513      7516      7517
      7514      7513      7516      7518      7514      7513      7516      7519
      7515      7513      7516      7517      7515      7513      7516      7518
      7515      7513      7516      7519      7517      7516      7519      7520
      7517      7516      7519      7521      7517      7516      7519      7522
      7518      7516      7519      7520      7518      7516      7519      7521
      7518      7516      7519      7522      7523      7526      7529      7530
      7523      7526      7529      7531      7523      7526      7529      7532
      7524      7523      7526      7527      7524      7523      7526      7528
      7524      7523      7526      7529      7525      7523      7526      7527
      7525      7523      7526      7528      7525      7523      7526      7529
      7526      7529      7532      7533      7526      7529      7532      7534
      7526      7529      7532      7535      7527      7526      7529      7530
      7527      7526      7529      7531      7527      7526      7529      7532
      7528      7526      7529      7530      7528      7526      7529      7531
      7528      7526      7529      7532      7529      7532      7535      7536
      7529      7532      7535      7537      7529      7532      7535      7538
      7530      7529      7532      7533      7530      7529      7532      7534
      7530      7529      7532      7535      7531      7529      7532      7533
      7531      7529      7532      7534      7531      7529      7532      7535
      7532      7535      7538      7539      7532      7535      7538      7540
      7532      7535      7538      7541      7533      7532      7535      7536
      7533      7532      7535      7537      7533      7532      7535      7538
      7534      7532      7535      7536      7534      7532      7535      7537
      7534      7532      7535      7538      7535      7538      7541      7542
      7535      7538      7541      7543      7535      7538      7541      7544
      7536      7535      7538      7539      7536      7535      7538      7540
      7536      7535      7538      7541      7537      7535      7538      7539
      7537      7535      7538      7540      7537      7535      7538      7541
      7538      7541      7544      7545      7538      7541      7544      7546
      7538      7541      7544      7547      7539      7538      7541      7542
      7539      7538      7541      7543      7539      7538      7541      7544
      7540      7538      7541      7542      7540      7538      7541      7543
      7540      7538      7541      7544      7541      7544      7547      7548
      7541      7544      7547      7549      7541      7544      7547      7550
      7542      7541      7544      7545      7542      7541      7544      7546
      7542      7541      7544      7547      7543      7541      7544      7545
      7543      7541      7544      7546      7543      7541      7544      7547
      7544      7547      7550      7551      7544      7547      7550      7552
      7544      7547      7550      7553      7545      7544      7547      7548
      7545      7544      7547      7549      7545      7544      7547      7550
      7546      7544      7547      7548      7546      7544      7547      7549
      7546      7544      7547      7550      7547      7550      7553      7554
      7547      7550      7553      7555      7547      7550      7553      7556
      7548      7547      7550      7551      7548      7547      7550      7552
      7548      7547      7550      7553      7549      7547      7550      7551
      7549      7547      7550      7552      7549      7547      7550      7553
      7550      7553      7556      7557      7550      7553      7556      7558
      7550      7553      7556      7559      7551      7550      7553      7554
      7551      7550      7553      7555      7551      7550      7553      7556
      7552      7550      7553      7554      7552      7550      7553      7555
      7552      7550      7553      7556      7553      7556      7559      7560
      7553      7556      7559      7561      7553      7556      7559      7562
      7554      7553      7556      7557      7554      7553      7556      7558
      7554      7553      7556      7559      7555      7553      7556      7557
      7555      7553      7556      7558      7555      7553      7556      7559
      7556      7559      7562      7563      7556      7559      7562      7564
      7556      7559      7562      7565      7557      7556      7559      7560
      7557      7556      7559      7561      7557      7556      7559      7562
      7558      7556      7559      7560      7558      7556      7559      7561
      7558      7556      7559      7562      7559      7562      7565      7566
      7559      7562      7565      7567      7559      7562      7565      7568
      7560      7559      7562      7563      7560      7559      7562      7564
      7560      7559      7562      7565      7561      7559      7562      7563
      7561      7559      7562      7564      7561      7559      7562      7565
      7562      7565      7568      7569      7562      7565      7568      7570
      7562      7565      7568      7571      7563      7562      7565      7566
      7563      7562      7565      7567      7563      7562      7565      7568
      7564      7562      7565      7566      7564      7562      7565      7567
      7564      7562      7565      7568      7566      7565      7568      7569
      7566      7565      7568      7570      7566      7565      7568      7571
      7567      7565      7568      7569      7567      7565      7568      7570
      7567      7565      7568      7571      7572      7576      7578      7579
      7572      7576      7578      7580      7572      7576      7581      7582
      7572      7576      7581      7583      7572      7576      7581      7587
      7573      7572      7576      7577      7573      7572      7576      7578
      7573      7572      7576      7581      7574      7572      7576      7577
      7574      7572      7576      7578      7574      7572      7576      7581
      7575      7572      7576      7577      7575      7572      7576      7578
      7575      7572      7576      7581      7576      7581      7587      7584
      7577      7576      7578      7579      7577      7576      7578      7580
      7577      7576      7581      7582      7577      7576      7581      7583
      7577      7576      7581      7587      7578      7576      7581      7582
      7578      7576      7581      7583      7578      7576      7581      7587
      7579      7578      7576      7581      7580      7578      7576      7581
      7581      7587      7584      7585      7581      7587      7584      7586
      7581      7587      7584      7588      7582      7581      7587      7584
      7583      7581      7587      7584      7584      7588      7589      7590
      7584      7588      7589      7591      7584      7588      7589      7592
      7585      7584      7588      7589      7586      7584      7588      7589
      7587      7584      7588      7589      7588      7589      7592      7593
      7588      7589      7592      7594      7588      7589      7592      7600
      7589      7592      7594      7595      7589      7592      7600      7601
      7589      7592      7600      7602      7589      7592      7600      7603
      7590      7589      7592      7593      7590      7589      7592      7594
      7590      7589      7592      7600      7591      7589      7592      7593
      7591      7589      7592      7594      7591      7589      7592      7600
      7592      7594      7595      7596      7592      7594      7595      7597
      7592      7600      7603      7604      7593      7592      7594      7595
      7593      7592      7600      7601      7593      7592      7600      7602
      7593      7592      7600      7603      7594      7592      7600      7601
      7594      7592      7600      7602      7594      7592      7600      7603
      7594      7595      7597      7598      7594      7595      7597      7599
      7594      7595      7597      7609      7595      7594      7592      7600
      7595      7597      7609      7610      7595      7597      7609      7611
      7595      7597      7609      7612      7596      7595      7597      7598
      7596      7595      7597      7599      7596      7595      7597      7609
      7597      7609      7612      7613      7597      7609      7612      7614
      7597      7609      7612      7615      7598      7597      7609      7610
      7598      7597      7609      7611      7598      7597      7609      7612
      7599      7597      7609      7610      7599      7597      7609      7611
      7599      7597      7609      7612      7600      7603      7604      7605
      7600      7603      7604      7606      7601      7600      7603      7604
      7602      7600      7603      7604      7603      7604      7606      7607
      7603      7604      7606      7608      7603      7604      7606      7656
      7604      7606      7656      7657      7604      7606      7656      7658
      7604      7606      7656      7659      7605      7604      7606      7607
      7605      7604      7606      7608      7605      7604      7606      7656
      7606      7656      7659      7660      7606      7656      7659      7661
      7606      7656      7659      7662      7607      7606      7656      7657
      7607      7606      7656      7658      7607      7606      7656      7659
      7608      7606      7656      7657      7608      7606      7656      7658
      7608      7606      7656      7659      7609      7612      7615      7616
      7609      7612      7615      7617      7610      7609      7612      7613
      7610      7609      7612      7614      7610      7609      7612      7615
      7611      7609      7612      7613      7611      7609      7612      7614
      7611      7609      7612      7615      7612      7615      7617      7618
      7612      7615      7617      7619      7613      7612      7615      7616
      7613      7612      7615      7617      7614      7612      7615      7616
      7614      7612      7615      7617      7615      7617      7619      7620
      7615      7617      7619      7621      7615      7617      7619      7622
      7616      7615      7617      7618      7616      7615      7617      7619
      7617      7619      7622      7623      7617      7619      7622      7624
      7618      7617      7619      7620      7618      7617      7619      7621
      7618      7617      7619      7622      7619      7622      7624      7625
      7619      7622      7624      7626      7620      7619      7622      7623
      7620      7619      7622      7624      7621      7619      7622      7623
      7621      7619      7622      7624      7622      7624      7626      7627
      7622      7624      7626      7628      7622      7624      7626      7629
      7623      7622      7624      7625      7623      7622      7624      7626
      7624      7626      7629      7630      7624      7626      7629      7631
      7625      7624      7626      7627      7625      7624      7626      7628
      7625      7624      7626      7629      7626      7629      7631      7632
      7626      7629      7631      7633      7627      7626      7629      7630
      7627      7626      7629      7631      7628      7626      7629      7630
      7628      7626      7629      7631      7629      7631      7633      7634
      7629      7631      7633      7635      7629      7631      7633      7636
      7630      7629      7631      7632      7630      7629      7631      7633
      7631      7633      7636      7637      7631      7633      7636      7638
      7632      7631      7633      7634      7632      7631      7633      7635
      7632      7631      7633      7636      7633      7636      7638      7639
      7633      7636      7638      7640      7634      7633      7636      7637
      7634      7633      7636      7638      7635      7633      7636      7637
      7635      7633      7636      7638      7636      7638      7640      7641
      7636      7638      7640      7642      7636      7638      7640      7643
      7637      7636      7638      7639      7637      7636      7638      7640
      7638      7640      7643      7644      7638      7640      7643      7645
      7638      7640      7643      7646      7639      7638      7640      7641
      7639      7638      7640      7642      7639      7638      7640      7643
      7640      7643      7646      7647      7640      7643      7646      7648
      7640      7643      7646      7649      7641      7640      7643      7644
      7641      7640      7643      7645      7641      7640      7643      7646
      7642      7640      7643      7644      7642      7640      7643      7645
      7642      7640      7643      7646      7643      7646      7649      7650
      7643      7646      7649      7651      7643      7646      7649      7652
      7644      7643      7646      7647      7644      7643      7646      7648
      7644      7643      7646      7649      7645      7643      7646      7647
      7645      7643      7646      7648      7645      7643      7646      7649
      7646      7649      7652      7653      7646      7649      7652      7654
      7646      7649      7652      7655      7647      7646      7649      7650
      7647      7646      7649      7651      7647      7646      7649      7652
      7648      7646      7649      7650      7648      7646      7649      7651
      7648      7646      7649      7652      7650      7649      7652      7653
      7650      7649      7652      7654      7650      7649      7652      7655
      7651      7649      7652      7653      7651      7649      7652      7654
      7651      7649      7652      7655      7656      7659      7662      7663
      7656      7659      7662      7664      7656      7659      7662      7665
      7657      7656      7659      7660      7657      7656      7659      7661
      7657      7656      7659      7662      7658      7656      7659      7660
      7658      7656      7659      7661      7658      7656      7659      7662
      7659      7662      7665      7666      7659      7662      7665      7667
      7659      7662      7665      7668      7660      7659      7662      7663
      7660      7659      7662      7664      7660      7659      7662      7665
      7661      7659      7662      7663      7661      7659      7662      7664
      7661      7659      7662      7665      7662      7665      7668      7669
      7662      7665      7668      7670      7662      7665      7668      7671
      7663      7662      7665      7666      7663      7662      7665      7667
      7663      7662      7665      7668      7664      7662      7665      7666
      7664      7662      7665      7667      7664      7662      7665      7668
      7665      7668      7671      7672      7665      7668      7671      7673
      7665      7668      7671      7674      7666      7665      7668      7669
      7666      7665      7668      7670      7666      7665      7668      7671
      7667      7665      7668      7669      7667      7665      7668      7670
      7667      7665      7668      7671      7668      7671      7674      7675
      7668      7671      7674      7676      7668      7671      7674      7677
      7669      7668      7671      7672      7669      7668      7671      7673
      7669      7668      7671      7674      7670      7668      7671      7672
      7670      7668      7671      7673      7670      7668      7671      7674
      7671      7674      7677      7678      7671      7674      7677      7679
      7671      7674      7677      7680      7672      7671      7674      7675
      7672      7671      7674      7676      7672      7671      7674      7677
      7673      7671      7674      7675      7673      7671      7674      7676
      7673      7671      7674      7677      7674      7677      7680      7681
      7674      7677      7680      7682      7674      7677      7680      7683
      7675      7674      7677      7678      7675      7674      7677      7679
      7675      7674      7677      7680      7676      7674      7677      7678
      7676      7674      7677      7679      7676      7674      7677      7680
      7677      7680      7683      7684      7677      7680      7683      7685
      7677      7680      7683      7686      7678      7677      7680      7681
      7678      7677      7680      7682      7678      7677      7680      7683
      7679      7677      7680      7681      7679      7677      7680      7682
      7679      7677      7680      7683      7680      7683      7686      7687
      7680      7683      7686      7688      7680      7683      7686      7689
      7681      7680      7683      7684      7681      7680      7683      7685
      7681      7680      7683      7686      7682      7680      7683      7684
      7682      7680      7683      7685      7682      7680      7683      7686
      7683      7686      7689      7690      7683      7686      7689      7691
      7683      7686      7689      7692      7684      7683      7686      7687
      7684      7683      7686      7688      7684      7683      7686      7689
      7685      7683      7686      7687      7685      7683      7686      7688
      7685      7683      7686      7689      7686      7689      7692      7693
      7686      7689      7692      7694      7686      7689      7692      7695
      7687      7686      7689      7690      7687      7686      7689      7691
      7687      7686      7689      7692      7688      7686      7689      7690
      7688      7686      7689      7691      7688      7686      7689      7692
      7689      7692      7695      7696      7689      7692      7695      7697
      7689      7692      7695      7698      7690      7689      7692      7693
      7690      7689      7692      7694      7690      7689      7692      7695
      7691      7689      7692      7693      7691      7689      7692      7694
      7691      7689      7692      7695      7692      7695      7698      7699
      7692      7695      7698      7700      7692      7695      7698      7701
      7693      7692      7695      7696      7693      7692      7695      7697
      7693      7692      7695      7698      7694      7692      7695      7696
      7694      7692      7695      7697      7694      7692      7695      7698
      7695      7698      7701      7702      7695      7698      7701      7703
      7695      7698      7701      7704      7696      7695      7698      7699
      7696      7695      7698      7700      7696      7695      7698      7701
      7697      7695      7698      7699      7697      7695      7698      7700
      7697      7695      7698      7701      7699      7698      7701      7702
      7699      7698      7701      7703      7699      7698      7701      7704
      7700      7698      7701      7702      7700      7698      7701      7703
      7700      7698      7701      7704      7705      7709      7712      7713
      7705      7709      7712      7743      7705      7751      7748      7743
      7705      7751      7748      7749      7705      7751      7748      7750
      7706      7705      7707      7708      7706      7705      7709      7710
      7706      7705      7709      7711      7706      7705      7709      7712
      7706      7705      7751      7748      7706      7705      7751      7752
      7706      7705      7751      7753      7707      7705      7709      7710
      7707      7705      7709      7711      7707      7705      7709      7712
      7707      7705      7751      7748      7707      7705      7751      7752
      7707      7705      7751      7753      7708      7707      7705      7709
      7708      7707      7705      7751      7709      7705      7751      7748
      7709      7705      7751      7752      7709      7705      7751      7753
      7709      7712      7713      7714      7709      7712      7713      7715
      7709      7712      7743      7741      7709      7712      7743      7744
      7709      7712      7743      7748      7710      7709      7705      7751
      7710      7709      7712      7713      7710      7709      7712      7743
      7711      7709      7705      7751      7711      7709      7712      7713
      7711      7709      7712      7743      7712      7709      7705      7751
      7712      7713      7715      7716      7712      7713      7715      7717
      7712      7713      7715      7718      7712      7743      7741      7718
      7712      7743      7741      7738      7712      7743      7741      7742
      7712      7743      7744      7745      7712      7743      7744      7746
      7712      7743      7744      7747      7712      7743      7748      7749
      7712      7743      7748      7750      7712      7743      7748      7751
      7713      7712      7743      7741      7713      7712      7743      7744
      7713      7712      7743      7748      7713      7715      7718      7719
      7713      7715      7718      7720      7713      7715      7718      7741
      7714      7713      7712      7743      7714      7713      7715      7716
      7714      7713      7715      7717      7714      7713      7715      7718
      7715      7713      7712      7743      7715      7718      7720      7721
      7715      7718      7720      7722      7715      7718      7720      7730
      7715      7718      7741      7738      7715      7718      7741      7742
      7715      7718      7741      7743      7716      7715      7718      7719
      7716      7715      7718      7720      7716      7715      7718      7741
      7717      7715      7718      7719      7717      7715      7718      7720
      7717      7715      7718      7741      7718      7720      7722      7723
      7718      7720      7722      7724      7718      7720      7722      7725
      7718      7720      7730      7728      7718      7720      7730      7731
      7718      7720      7730      7735      7718      7741      7738      7735
      7718      7741      7738      7739      7718      7741      7738      7740
      7718      7741      7743      7744      7718      7741      7743      7748
      7719      7718      7720      7721      7719      7718      7720      7722
      7719      7718      7720      7730      7719      7718      7741      7738
      7719      7718      7741      7742      7719      7718      7741      7743
      7720      7718      7741      7738      7720      7718      7741      7742
      7720      7718      7741      7743      7720      7722      7725      7726
      7720      7722      7725      7727      7720      7722      7725      7728
      7720      7730      7728      7725      7720      7730      7728      7729
      7720      7730      7728      7754      7720      7730      7731      7732
      7720      7730      7731      7733      7720      7730      7731      7734
      7720      7730      7735      7736      7720      7730      7735      7737
      7720      7730      7735      7738      7721      7720      7718      7741
      7721      7720      7722      7723      7721      7720      7722      7724
      7721      7720      7722      7725      7721      7720      7730      7728
      7721      7720      7730      7731      7721      7720      7730      7735
      7722      7720      7718      7741      7722      7720      7730      7728
      7722      7720      7730      7731      7722      7720      7730      7735
      7722      7725      7728      7729      7722      7725      7728      7730
      7722      7725      7728      7754      7723      7722      7720      7730
      7723      7722      7725      7726      7723      7722      7725      7727
      7723      7722      7725      7728      7724      7722      7720      7730
      7724      7722      7725      7726      7724      7722      7725      7727
      7724      7722      7725      7728      7725      7722      7720      7730
      7725      7728      7730      7731      7725      7728      7730      7735
      7725      7728      7754      7755      7725      7728      7754      7756
      7725      7728      7754      7760      7726      7725      7728      7729
      7726      7725      7728      7730      7726      7725      7728      7754
      7727      7725      7728      7729      7727      7725      7728      7730
      7727      7725      7728      7754      7728      7730      7731      7732
      7728      7730      7731      7733      7728      7730      7731      7734
      7728      7730      7735      7736      7728      7730      7735      7737
      7728      7730      7735      7738      7728      7754      7756      7757
      7728      7754      7756      7758      7728      7754      7756      7759
      7728      7754      7760      7761      7728      7754      7760      7762
      7728      7754      7760      7763      7729      7728      7730      7731
      7729      7728      7730      7735      7729      7728      7754      7755
      7729      7728      7754      7756      7729      7728      7754      7760
      7730      7720      7718      7741      7730      7728      7754      7755
      7730      7728      7754      7756      7730      7728      7754      7760
      7730      7735      7738      7739      7730      7735      7738      7740
      7730      7735      7738      7741      7731      7730      7728      7754
      7731      7730      7735      7736      7731      7730      7735      7737
      7731      7730      7735      7738      7732      7731      7730      7735
      7733      7731      7730      7735      7734      7731      7730      7735
      7735      7730      7728      7754      7735      7738      7741      7742
      7735      7738      7741      7743      7736      7735      7738      7739
      7736      7735      7738      7740      7736      7735      7738      7741
      7737      7735      7738      7739      7737      7735      7738      7740
      7737      7735      7738      7741      7738      7741      7743      7744
      7738      7741      7743      7748      7739      7738      7741      7742
      7739      7738      7741      7743      7740      7738      7741      7742
      7740      7738      7741      7743      7741      7743      7744      7745
      7741      7743      7744      7746      7741      7743      7744      7747
      7741      7743      7748      7749      7741      7743      7748      7750
      7741      7743      7748      7751      7742      7741      7743      7744
      7742      7741      7743      7748      7743      7748      7751      7752
      7743      7748      7751      7753      7744      7743      7748      7749
      7744      7743      7748      7750      7744      7743      7748      7751
      7745      7744      7743      7748      7746      7744      7743      7748
      7747      7744      7743      7748      7749      7748      7751      7752
      7749      7748      7751      7753      7750      7748      7751      7752
      7750      7748      7751      7753      7754      7760      7763      7764
      7754      7760      7763      7765      7754      7760      7763      7766
      7755      7754      7756      7757      7755      7754      7756      7758
      7755      7754      7756      7759      7755      7754      7760      7761
      7755      7754      7760      7762      7755      7754      7760      7763
      7756      7754      7760      7761      7756      7754      7760      7762
      7756      7754      7760      7763      7757      7756      7754      7760
      7758      7756      7754      7760      7759      7756      7754      7760
      7760      7763      7766      7767      7760      7763      7766      7768
      7760      7763      7766      7769      7761      7760      7763      7764
      7761      7760      7763      7765      7761      7760      7763      7766
      7762      7760      7763      7764      7762      7760      7763      7765
      7762      7760      7763      7766      7763      7766      7769      7770
      7763      7766      7769      7771      7763      7766      7769      7775
      7764      7763      7766      7767      7764      7763      7766      7768
      7764      7763      7766      7769      7765      7763      7766      7767
      7765      7763      7766      7768      7765      7763      7766      7769
      7766      7769      7771      7772      7766      7769      7771      7773
      7766      7769      7771      7774      7766      7769      7775      7776
      7766      7769      7775      7777      7766      7769      7775      7778
      7767      7766      7769      7770      7767      7766      7769      7771
      7767      7766      7769      7775      7768      7766      7769      7770
      7768      7766      7769      7771      7768      7766      7769      7775
      7770      7769      7771      7772      7770      7769      7771      7773
      7770      7769      7771      7774      7770      7769      7775      7776
      7770      7769      7775      7777      7770      7769      7775      7778
      7771      7769      7775      7776      7771      7769      7775      7777
      7771      7769      7775      7778      7772      7771      7769      7775
      7773      7771      7769      7775      7774      7771      7769      7775
      7779      7780      7795      7796      7779      7780      7795      7797
      7779      7780      7795      7801      7780      7779      7783      7784
      7780      7779      7783      7785      7780      7779      7783      7786
      7780      7779      7787      7788      7780      7779      7787      7789
      7780      7779      7787      7790      7780      7779      7791      7792
      7780      7779      7791      7793      7780      7779      7791      7794
      7780      7795      7801      7798      7781      7780      7779      7783
      7781      7780      7779      7787      7781      7780      7779      7791
      7781      7780      7795      7796      7781      7780      7795      7797
      7781      7780      7795      7801      7782      7780      7779      7783
      7782      7780      7779      7787      7782      7780      7779      7791
      7782      7780      7795      7796      7782      7780      7795      7797
      7782      7780      7795      7801      7783      7779      7780      7795
      7783      7779      7787      7788      7783      7779      7787      7789
      7783      7779      7787      7790      7783      7779      7791      7792
      7783      7779      7791      7793      7783      7779      7791      7794
      7784      7783      7779      7787      7784      7783      7779      7791
      7785      7783      7779      7787      7785      7783      7779      7791
      7786      7783      7779      7787      7786      7783      7779      7791
      7787      7779      7780      7795      7787      7779      7791      7792
      7787      7779      7791      7793      7787      7779      7791      7794
      7788      7787      7779      7791      7789      7787      7779      7791
      7790      7787      7779      7791      7791      7779      7780      7795
      7795      7801      7798      7799      7795      7801      7798      7800
      7795      7801      7798      7802      7796      7795      7801      7798
      7797      7795      7801      7798      7798      7802      7803      7804
      7798      7802      7803      7805      7798      7802      7803      7806
      7799      7798      7802      7803      7800      7798      7802      7803
      7801      7798      7802      7803      7802      7803      7806      7807
      7802      7803      7806      7808      7802      7803      7806      7814
      7803      7806      7808      7809      7803      7806      7814      7815
      7803      7806      7814      7816      7803      7806      7814      7817
      7804      7803      7806      7807      7804      7803      7806      7808
      7804      7803      7806      7814      7805      7803      7806      7807
      7805      7803      7806      7808      7805      7803      7806      7814
      7806      7808      7809      7810      7806      7808      7809      7811
      7806      7814      7817      7818      7807      7806      7808      7809
      7807      7806      7814      7815      7807      7806      7814      7816
      7807      7806      7814      7817      7808      7806      7814      7815
      7808      7806      7814      7816      7808      7806      7814      7817
      7808      7809      7811      7812      7808      7809      7811      7813
      7808      7809      7811      7823      7809      7808      7806      7814
      7809      7811      7823      7824      7809      7811      7823      7825
      7809      7811      7823      7826      7810      7809      7811      7812
      7810      7809      7811      7813      7810      7809      7811      7823
      7811      7823      7826      7827      7811      7823      7826      7828
      7811      7823      7826      7829      7812      7811      7823      7824
      7812      7811      7823      7825      7812      7811      7823      7826
      7813      7811      7823      7824      7813      7811      7823      7825
      7813      7811      7823      7826      7814      7817      7818      7819
      7814      7817      7818      7820      7815      7814      7817      7818
      7816      7814      7817      7818      7817      7818      7820      7821
      7817      7818      7820      7822      7817      7818      7820      7870
      7818      7820      7870      7871      7818      7820      7870      7872
      7818      7820      7870      7873      7819      7818      7820      7821
      7819      7818      7820      7822      7819      7818      7820      7870
      7820      7870      7873      7874      7820      7870      7873      7875
      7820      7870      7873      7876      7821      7820      7870      7871
      7821      7820      7870      7872      7821      7820      7870      7873
      7822      7820      7870      7871      7822      7820      7870      7872
      7822      7820      7870      7873      7823      7826      7829      7830
      7823      7826      7829      7831      7823      7826      7829      7832
      7824      7823      7826      7827      7824      7823      7826      7828
      7824      7823      7826      7829      7825      7823      7826      7827
      7825      7823      7826      7828      7825      7823      7826      7829
      7826      7829      7832      7833      7826      7829      7832      7834
      7826      7829      7832      7835      7827      7826      7829      7830
      7827      7826      7829      7831      7827      7826      7829      7832
      7828      7826      7829      7830      7828      7826      7829      7831
      7828      7826      7829      7832      7829      7832      7835      7836
      7829      7832      7835      7837      7829      7832      7835      7838
      7830      7829      7832      7833      7830      7829      7832      7834
      7830      7829      7832      7835      7831      7829      7832      7833
      7831      7829      7832      7834      7831      7829      7832      7835
      7832      7835      7838      7839      7832      7835      7838      7840
      7832      7835      7838      7841      7833      7832      7835      7836
      7833      7832      7835      7837      7833      7832      7835      7838
      7834      7832      7835      7836      7834      7832      7835      7837
      7834      7832      7835      7838      7835      7838      7841      7842
      7835      7838      7841      7843      7836      7835      7838      7839
      7836      7835      7838      7840      7836      7835      7838      7841
      7837      7835      7838      7839      7837      7835      7838      7840
      7837      7835      7838      7841      7838      7841      7843      7844
      7838      7841      7843      7845      7839      7838      7841      7842
      7839      7838      7841      7843      7840      7838      7841      7842
      7840      7838      7841      7843      7841      7843      7845      7846
      7841      7843      7845      7847      7841      7843      7845      7848
      7842      7841      7843      7844      7842      7841      7843      7845
      7843      7845      7848      7849      7843      7845      7848      7850
      7843      7845      7848      7851      7844      7843      7845      7846
      7844      7843      7845      7847      7844      7843      7845      7848
      7845      7848      7851      7852      7845      7848      7851      7853
      7845      7848      7851      7854      7846      7845      7848      7849
      7846      7845      7848      7850      7846      7845      7848      7851
      7847      7845      7848      7849      7847      7845      7848      7850
      7847      7845      7848      7851      7848      7851      7854      7855
      7848      7851      7854      7856      7848      7851      7854      7857
      7849      7848      7851      7852      7849      7848      7851      7853
      7849      7848      7851      7854      7850      7848      7851      7852
      7850      7848      7851      7853      7850      7848      7851      7854
      7851      7854      7857      7858      7851      7854      7857      7859
      7851      7854      7857      7860      7852      7851      7854      7855
      7852      7851      7854      7856      7852      7851      7854      7857
      7853      7851      7854      7855      7853      7851      7854      7856
      7853      7851      7854      7857      7854      7857      7860      7861
      7854      7857      7860      7862      7854      7857      7860      7863
      7855      7854      7857      7858      7855      7854      7857      7859
      7855      7854      7857      7860      7856      7854      7857      7858
      7856      7854      7857      7859      7856      7854      7857      7860
      7857      7860      7863      7864      7857      7860      7863      7865
      7857      7860      7863      7866      7858      7857      7860      7861
      7858      7857      7860      7862      7858      7857      7860      7863
      7859      7857      7860      7861      7859      7857      7860      7862
      7859      7857      7860      7863      7860      7863      7866      7867
      7860      7863      7866      7868      7860      7863      7866      7869
      7861      7860      7863      7864      7861      7860      7863      7865
      7861      7860      7863      7866      7862      7860      7863      7864
      7862      7860      7863      7865      7862      7860      7863      7866
      7864      7863      7866      7867      7864      7863      7866      7868
      7864      7863      7866      7869      7865      7863      7866      7867
      7865      7863      7866      7868      7865      7863      7866      7869
      7870      7873      7876      7877      7870      7873      7876      7878
      7870      7873      7876      7879      7871      7870      7873      7874
      7871      7870      7873      7875      7871      7870      7873      7876
      7872      7870      7873      7874      7872      7870      7873      7875
      7872      7870      7873      7876      7873      7876      7879      7880
      7873      7876      7879      7881      7873      7876      7879      7882
      7874      7873      7876      7877      7874      7873      7876      7878
      7874      7873      7876      7879      7875      7873      7876      7877
      7875      7873      7876      7878      7875      7873      7876      7879
      7876      7879      7882      7883      7876      7879      7882      7884
      7876      7879      7882      7885      7877      7876      7879      7880
      7877      7876      7879      7881      7877      7876      7879      7882
      7878      7876      7879      7880      7878      7876      7879      7881
      7878      7876      7879      7882      7879      7882      7885      7886
      7879      7882      7885      7887      7879      7882      7885      7888
      7880      7879      7882      7883      7880      7879      7882      7884
      7880      7879      7882      7885      7881      7879      7882      7883
      7881      7879      7882      7884      7881      7879      7882      7885
      7882      7885      7888      7889      7882      7885      7888      7890
      7882      7885      7888      7891      7883      7882      7885      7886
      7883      7882      7885      7887      7883      7882      7885      7888
      7884      7882      7885      7886      7884      7882      7885      7887
      7884      7882      7885      7888      7885      7888      7891      7892
      7885      7888      7891      7893      7885      7888      7891      7894
      7886      7885      7888      7889      7886      7885      7888      7890
      7886      7885      7888      7891      7887      7885      7888      7889
      7887      7885      7888      7890      7887      7885      7888      7891
      7888      7891      7894      7895      7888      7891      7894      7896
      7888      7891      7894      7897      7889      7888      7891      7892
      7889      7888      7891      7893      7889      7888      7891      7894
      7890      7888      7891      7892      7890      7888      7891      7893
      7890      7888      7891      7894      7891      7894      7897      7898
      7891      7894      7897      7899      7891      7894      7897      7900
      7892      7891      7894      7895      7892      7891      7894      7896
      7892      7891      7894      7897      7893      7891      7894      7895
      7893      7891      7894      7896      7893      7891      7894      7897
      7894      7897      7900      7901      7894      7897      7900      7902
      7894      7897      7900      7903      7895      7894      7897      7898
      7895      7894      7897      7899      7895      7894      7897      7900
      7896      7894      7897      7898      7896      7894      7897      7899
      7896      7894      7897      7900      7897      7900      7903      7904
      7897      7900      7903      7905      7897      7900      7903      7906
      7898      7897      7900      7901      7898      7897      7900      7902
      7898      7897      7900      7903      7899      7897      7900      7901
      7899      7897      7900      7902      7899      7897      7900      7903
      7900      7903      7906      7907      7900      7903      7906      7908
      7900      7903      7906      7909      7901      7900      7903      7904
      7901      7900      7903      7905      7901      7900      7903      7906
      7902      7900      7903      7904      7902      7900      7903      7905
      7902      7900      7903      7906      7903      7906      7909      7910
      7903      7906      7909      7911      7903      7906      7909      7912
      7904      7903      7906      7907      7904      7903      7906      7908
      7904      7903      7906      7909      7905      7903      7906      7907
      7905      7903      7906      7908      7905      7903      7906      7909
      7907      7906      7909      7910      7907      7906      7909      7911
      7907      7906      7909      7912      7908      7906      7909      7910
      7908      7906      7909      7911      7908      7906      7909      7912
      7913      7926      7929      7930      7913      7926      7929      7931
      7913      7926      7929      7936      7914      7913      7918      7919
      7914      7913      7918      7920      7914      7913      7918      7921
      7914      7913      7922      7923      7914      7913      7922      7924
      7914      7913      7922      7925      7914      7913      7926      7927
      7914      7913      7926      7928      7914      7913      7926      7929
      7915      7914      7913      7918      7915      7914      7913      7922
      7915      7914      7913      7926      7916      7914      7913      7918
      7916      7914      7913      7922      7916      7914      7913      7926
      7917      7914      7913      7918      7917      7914      7913      7922
      7917      7914      7913      7926      7918      7913      7922      7923
      7918      7913      7922      7924      7918      7913      7922      7925
      7918      7913      7926      7927      7918      7913      7926      7928
      7918      7913      7926      7929      7919      7918      7913      7922
      7919      7918      7913      7926      7920      7918      7913      7922
      7920      7918      7913      7926      7921      7918      7913      7922
      7921      7918      7913      7926      7922      7913      7926      7927
      7922      7913      7926      7928      7922      7913      7926      7929
      7923      7922      7913      7926      7924      7922      7913      7926
      7925      7922      7913      7926      7926      7929      7936      7932
      7927      7926      7929      7930      7927      7926      7929      7931
      7927      7926      7929      7936      7928      7926      7929      7930
      7928      7926      7929      7931      7928      7926      7929      7936
      7929      7936      7932      7933      7929      7936      7932      7934
      7929      7936      7932      7935      7930      7929      7936      7932
      7931      7929      7936      7932      7932      7935      7937      7938
      7932      7935      7937      7939      7932      7935      7937      7942
      7933      7932      7935      7937      7934      7932      7935      7937
      7935      7937      7942      7940      7935      7937      7942      7943
      7935      7937      7942      7944      7936      7932      7935      7937
      7937      7942      7940      7941      7937      7942      7940      7992
      7937      7942      7944      7945      7937      7942      7944      7946
      7937      7942      7944      7948      7938      7937      7942      7940
      7938      7937      7942      7943      7938      7937      7942      7944
      7939      7937      7942      7940      7939      7937      7942      7943
      7939      7937      7942      7944      7940      7942      7944      7945
      7940      7942      7944      7946      7940      7942      7944      7948
      7940      7992      7994      7995      7940      7992      7994      7996
      7940      7992      7994      7997      7941      7940      7942      7943
      7941      7940      7942      7944      7941      7940      7992      7993
      7941      7940      7992      7994      7942      7940      7992      7993
      7942      7940      7992      7994      7942      7944      7946      7947
      7942      7944      7948      7949      7942      7944      7948      7950
      7943      7942      7940      7992      7943      7942      7944      7945
      7943      7942      7944      7946      7943      7942      7944      7948
      7944      7942      7940      7992      7944      7948      7950      7951
      7944      7948      7950      7952      7945      7944      7946      7947
      7945      7944      7948      7949      7945      7944      7948      7950
      7946      7944      7948      7949      7946      7944      7948      7950
      7947      7946      7944      7948      7948      7950      7952      7953
      7948      7950      7952      7954      7948      7950      7952      7955
      7949      7948      7950      7951      7949      7948      7950      7952
      7950      7952      7955      7956      7950      7952      7955      7957
      7950      7952      7955      7958      7951      7950      7952      7953
      7951      7950      7952      7954      7951      7950      7952      7955
      7952      7955      7958      7959      7952      7955      7958      7960
      7952      7955      7958      7961      7953      7952      7955      7956
      7953      7952      7955      7957      7953      7952      7955      7958
      7954      7952      7955      7956      7954      7952      7955      7957
      7954      7952      7955      7958      7955      7958      7961      7962
      7955      7958      7961      7963      7955      7958      7961      7964
      7956      7955      7958      7959      7956      7955      7958      7960
      7956      7955      7958      7961      7957      7955      7958      7959
      7957      7955      7958      7960      7957      7955      7958      7961
      7958      7961      7964      7965      7958      7961      7964      7966
      7958      7961      7964      7967      7959      7958      7961      7962
      7959      7958      7961      7963      7959      7958      7961      7964
      7960      7958      7961      7962      7960      7958      7961      7963
      7960      7958      7961      7964      7961      7964      7967      7968
      7961      7964      7967      7969      7961      7964      7967      7970
      7962      7961      7964      7965      7962      7961      7964      7966
      7962      7961      7964      7967      7963      7961      7964      7965
      7963      7961      7964      7966      7963      7961      7964      7967
      7964      7967      7970      7971      7964      7967      7970      7972
      7964      7967      7970      7973      7965      7964      7967      7968
      7965      7964      7967      7969      7965      7964      7967      7970
      7966      7964      7967      7968      7966      7964      7967      7969
      7966      7964      7967      7970      7967      7970      7973      7974
      7967      7970      7973      7975      7967      7970      7973      7976
      7968      7967      7970      7971      7968      7967      7970      7972
      7968      7967      7970      7973      7969      7967      7970      7971
      7969      7967      7970      7972      7969      7967      7970      7973
      7970      7973      7976      7977      7970      7973      7976      7978
      7970      7973      7976      7979      7971      7970      7973      7974
      7971      7970      7973      7975      7971      7970      7973      7976
      7972      7970      7973      7974      7972      7970      7973      7975
      7972      7970      7973      7976      7973      7976      7979      7980
      7973      7976      7979      7981      7973      7976      7979      7982
      7974      7973      7976      7977      7974      7973      7976      7978
      7974      7973      7976      7979      7975      7973      7976      7977
      7975      7973      7976      7978      7975      7973      7976      7979
      7976      7979      7982      7983      7976      7979      7982      7984
      7976      7979      7982      7985      7977      7976      7979      7980
      7977      7976      7979      7981      7977      7976      7979      7982
      7978      7976      7979      7980      7978      7976      7979      7981
      7978      7976      7979      7982      7979      7982      7985      7986
      7979      7982      7985      7987      7979      7982      7985      7988
      7980      7979      7982      7983      7980      7979      7982      7984
      7980      7979      7982      7985      7981      7979      7982      7983
      7981      7979      7982      7984      7981      7979      7982      7985
      7982      7985      7988      7989      7982      7985      7988      7990
      7982      7985      7988      7991      7983      7982      7985      7986
      7983      7982      7985      7987      7983      7982      7985      7988
      7984      7982      7985      7986      7984      7982      7985      7987
      7984      7982      7985      7988      7986      7985      7988      7989
      7986      7985      7988      7990      7986      7985      7988      7991
      7987      7985      7988      7989      7987      7985      7988      7990
      7987      7985      7988      7991      7992      7994      7997      7998
      7992      7994      7997      7999      7992      7994      7997      8000
      7993      7992      7994      7995      7993      7992      7994      7996
      7993      7992      7994      7997      7994      7997      8000      8001
      7994      7997      8000      8002      7994      7997      8000      8003
      7995      7994      7997      7998      7995      7994      7997      7999
      7995      7994      7997      8000      7996      7994      7997      7998
      7996      7994      7997      7999      7996      7994      7997      8000
      7997      8000      8003      8004      7997      8000      8003      8005
      7997      8000      8003      8006      7998      7997      8000      8001
      7998      7997      8000      8002      7998      7997      8000      8003
      7999      7997      8000      8001      7999      7997      8000      8002
      7999      7997      8000      8003      8000      8003      8006      8007
      8000      8003      8006      8008      8000      8003      8006      8009
      8001      8000      8003      8004      8001      8000      8003      8005
      8001      8000      8003      8006      8002      8000      8003      8004
      8002      8000      8003      8005      8002      8000      8003      8006
      8003      8006      8009      8010      8003      8006      8009      8011
      8003      8006      8009      8012      8004      8003      8006      8007
      8004      8003      8006      8008      8004      8003      8006      8009
      8005      8003      8006      8007      8005      8003      8006      8008
      8005      8003      8006      8009      8006      8009      8012      8013
      8006      8009      8012      8014      8006      8009      8012      8015
      8007      8006      8009      8010      8007      8006      8009      8011
      8007      8006      8009      8012      8008      8006      8009      8010
      8008      8006      8009      8011      8008      8006      8009      8012
      8009      8012      8015      8016      8009      8012      8015      8017
      8010      8009      8012      8013      8010      8009      8012      8014
      8010      8009      8012      8015      8011      8009      8012      8013
      8011      8009      8012      8014      8011      8009      8012      8015
      8012      8015      8017      8018      8012      8015      8017      8019
      8013      8012      8015      8016      8013      8012      8015      8017
      8014      8012      8015      8016      8014      8012      8015      8017
      8015      8017      8019      8020      8015      8017      8019      8021
      8015      8017      8019      8022      8016      8015      8017      8018
      8016      8015      8017      8019      8017      8019      8022      8023
      8017      8019      8022      8024      8017      8019      8022      8025
      8018      8017      8019      8020      8018      8017      8019      8021
      8018      8017      8019      8022      8019      8022      8025      8026
      8019      8022      8025      8027      8019      8022      8025      8028
      8020      8019      8022      8023      8020      8019      8022      8024
      8020      8019      8022      8025      8021      8019      8022      8023
      8021      8019      8022      8024      8021      8019      8022      8025
      8022      8025      8028      8029      8022      8025      8028      8030
      8022      8025      8028      8031      8023      8022      8025      8026
      8023      8022      8025      8027      8023      8022      8025      8028
      8024      8022      8025      8026      8024      8022      8025      8027
      8024      8022      8025      8028      8025      8028      8031      8032
      8025      8028      8031      8033      8025      8028      8031      8034
      8026      8025      8028      8029      8026      8025      8028      8030
      8026      8025      8028      8031      8027      8025      8028      8029
      8027      8025      8028      8030      8027      8025      8028      8031
      8028      8031      8034      8035      8028      8031      8034      8036
      8028      8031      8034      8037      8029      8028      8031      8032
      8029      8028      8031      8033      8029      8028      8031      8034
      8030      8028      8031      8032      8030      8028      8031      8033
      8030      8028      8031      8034      8031      8034      8037      8038
      8031      8034      8037      8039      8031      8034      8037      8040
      8032      8031      8034      8035      8032      8031      8034      8036
      8032      8031      8034      8037      8033      8031      8034      8035
      8033      8031      8034      8036      8033      8031      8034      8037
      8034      8037      8040      8041      8034      8037      8040      8042
      8034      8037      8040      8043      8035      8034      8037      8038
      8035      8034      8037      8039      8035      8034      8037      8040
      8036      8034      8037      8038      8036      8034      8037      8039
      8036      8034      8037      8040      8038      8037      8040      8041
      8038      8037      8040      8042      8038      8037      8040      8043
      8039      8037      8040      8041      8039      8037      8040      8042
      8039      8037      8040      8043      8044      8048      8050      8051
      8044      8048      8050      8052      8044      8048      8053      8054
      8044      8048      8053      8055      8044      8048      8053      8059
      8045      8044      8048      8049      8045      8044      8048      8050
      8045      8044      8048      8053      8046      8044      8048      8049
      8046      8044      8048      8050      8046      8044      8048      8053
      8047      8044      8048      8049      8047      8044      8048      8050
      8047      8044      8048      8053      8048      8053      8059      8056
      8049      8048      8050      8051      8049      8048      8050      8052
      8049      8048      8053      8054      8049      8048      8053      8055
      8049      8048      8053      8059      8050      8048      8053      8054
      8050      8048      8053      8055      8050      8048      8053      8059
      8051      8050      8048      8053      8052      8050      8048      8053
      8053      8059      8056      8057      8053      8059      8056      8058
      8053      8059      8056      8060      8054      8053      8059      8056
      8055      8053      8059      8056      8056      8060      8061      8062
      8056      8060      8061      8063      8056      8060      8061      8064
      8057      8056      8060      8061      8058      8056      8060      8061
      8059      8056      8060      8061      8060      8061      8064      8065
      8060      8061      8064      8066      8060      8061      8064      8072
      8061      8064      8066      8067      8061      8064      8072      8073
      8061      8064      8072      8074      8061      8064      8072      8075
      8062      8061      8064      8065      8062      8061      8064      8066
      8062      8061      8064      8072      8063      8061      8064      8065
      8063      8061      8064      8066      8063      8061      8064      8072
      8064      8066      8067      8068      8064      8066      8067      8069
      8064      8072      8075      8076      8065      8064      8066      8067
      8065      8064      8072      8073      8065      8064      8072      8074
      8065      8064      8072      8075      8066      8064      8072      8073
      8066      8064      8072      8074      8066      8064      8072      8075
      8066      8067      8069      8070      8066      8067      8069      8071
      8066      8067      8069      8081      8067      8066      8064      8072
      8067      8069      8081      8082      8067      8069      8081      8083
      8067      8069      8081      8084      8068      8067      8069      8070
      8068      8067      8069      8071      8068      8067      8069      8081
      8069      8081      8084      8085      8069      8081      8084      8086
      8069      8081      8084      8087      8070      8069      8081      8082
      8070      8069      8081      8083      8070      8069      8081      8084
      8071      8069      8081      8082      8071      8069      8081      8083
      8071      8069      8081      8084      8072      8075      8076      8077
      8072      8075      8076      8078      8073      8072      8075      8076
      8074      8072      8075      8076      8075      8076      8078      8079
      8075      8076      8078      8080      8075      8076      8078      8128
      8076      8078      8128      8129      8076      8078      8128      8130
      8076      8078      8128      8131      8077      8076      8078      8079
      8077      8076      8078      8080      8077      8076      8078      8128
      8078      8128      8131      8132      8078      8128      8131      8133
      8078      8128      8131      8134      8079      8078      8128      8129
      8079      8078      8128      8130      8079      8078      8128      8131
      8080      8078      8128      8129      8080      8078      8128      8130
      8080      8078      8128      8131      8081      8084      8087      8088
      8081      8084      8087      8089      8082      8081      8084      8085
      8082      8081      8084      8086      8082      8081      8084      8087
      8083      8081      8084      8085      8083      8081      8084      8086
      8083      8081      8084      8087      8084      8087      8089      8090
      8084      8087      8089      8091      8085      8084      8087      8088
      8085      8084      8087      8089      8086      8084      8087      8088
      8086      8084      8087      8089      8087      8089      8091      8092
      8087      8089      8091      8093      8087      8089      8091      8094
      8088      8087      8089      8090      8088      8087      8089      8091
      8089      8091      8094      8095      8089      8091      8094      8096
      8090      8089      8091      8092      8090      8089      8091      8093
      8090      8089      8091      8094      8091      8094      8096      8097
      8091      8094      8096      8098      8092      8091      8094      8095
      8092      8091      8094      8096      8093      8091      8094      8095
      8093      8091      8094      8096      8094      8096      8098      8099
      8094      8096      8098      8100      8094      8096      8098      8101
      8095      8094      8096      8097      8095      8094      8096      8098
      8096      8098      8101      8102      8096      8098      8101      8103
      8097      8096      8098      8099      8097      8096      8098      8100
      8097      8096      8098      8101      8098      8101      8103      8104
      8098      8101      8103      8105      8099      8098      8101      8102
      8099      8098      8101      8103      8100      8098      8101      8102
      8100      8098      8101      8103      8101      8103      8105      8106
      8101      8103      8105      8107      8101      8103      8105      8108
      8102      8101      8103      8104      8102      8101      8103      8105
      8103      8105      8108      8109      8103      8105      8108      8110
      8104      8103      8105      8106      8104      8103      8105      8107
      8104      8103      8105      8108      8105      8108      8110      8111
      8105      8108      8110      8112      8106      8105      8108      8109
      8106      8105      8108      8110      8107      8105      8108      8109
      8107      8105      8108      8110      8108      8110      8112      8113
      8108      8110      8112      8114      8108      8110      8112      8115
      8109      8108      8110      8111      8109      8108      8110      8112
      8110      8112      8115      8116      8110      8112      8115      8117
      8110      8112      8115      8118      8111      8110      8112      8113
      8111      8110      8112      8114      8111      8110      8112      8115
      8112      8115      8118      8119      8112      8115      8118      8120
      8112      8115      8118      8121      8113      8112      8115      8116
      8113      8112      8115      8117      8113      8112      8115      8118
      8114      8112      8115      8116      8114      8112      8115      8117
      8114      8112      8115      8118      8115      8118      8121      8122
      8115      8118      8121      8123      8115      8118      8121      8124
      8116      8115      8118      8119      8116      8115      8118      8120
      8116      8115      8118      8121      8117      8115      8118      8119
      8117      8115      8118      8120      8117      8115      8118      8121
      8118      8121      8124      8125      8118      8121      8124      8126
      8118      8121      8124      8127      8119      8118      8121      8122
      8119      8118      8121      8123      8119      8118      8121      8124
      8120      8118      8121      8122      8120      8118      8121      8123
      8120      8118      8121      8124      8122      8121      8124      8125
      8122      8121      8124      8126      8122      8121      8124      8127
      8123      8121      8124      8125      8123      8121      8124      8126
      8123      8121      8124      8127      8128      8131      8134      8135
      8128      8131      8134      8136      8128      8131      8134      8137
      8129      8128      8131      8132      8129      8128      8131      8133
      8129      8128      8131      8134      8130      8128      8131      8132
      8130      8128      8131      8133      8130      8128      8131      8134
      8131      8134      8137      8138      8131      8134      8137      8139
      8131      8134      8137      8140      8132      8131      8134      8135
      8132      8131      8134      8136      8132      8131      8134      8137
      8133      8131      8134      8135      8133      8131      8134      8136
      8133      8131      8134      8137      8134      8137      8140      8141
      8134      8137      8140      8142      8134      8137      8140      8143
      8135      8134      8137      8138      8135      8134      8137      8139
      8135      8134      8137      8140      8136      8134      8137      8138
      8136      8134      8137      8139      8136      8134      8137      8140
      8137      8140      8143      8144      8137      8140      8143      8145
      8137      8140      8143      8146      8138      8137      8140      8141
      8138      8137      8140      8142      8138      8137      8140      8143
      8139      8137      8140      8141      8139      8137      8140      8142
      8139      8137      8140      8143      8140      8143      8146      8147
      8140      8143      8146      8148      8140      8143      8146      8149
      8141      8140      8143      8144      8141      8140      8143      8145
      8141      8140      8143      8146      8142      8140      8143      8144
      8142      8140      8143      8145      8142      8140      8143      8146
      8143      8146      8149      8150      8143      8146      8149      8151
      8143      8146      8149      8152      8144      8143      8146      8147
      8144      8143      8146      8148      8144      8143      8146      8149
      8145      8143      8146      8147      8145      8143      8146      8148
      8145      8143      8146      8149      8146      8149      8152      8153
      8146      8149      8152      8154      8146      8149      8152      8155
      8147      8146      8149      8150      8147      8146      8149      8151
      8147      8146      8149      8152      8148      8146      8149      8150
      8148      8146      8149      8151      8148      8146      8149      8152
      8149      8152      8155      8156      8149      8152      8155      8157
      8149      8152      8155      8158      8150      8149      8152      8153
      8150      8149      8152      8154      8150      8149      8152      8155
      8151      8149      8152      8153      8151      8149      8152      8154
      8151      8149      8152      8155      8152      8155      8158      8159
      8152      8155      8158      8160      8152      8155      8158      8161
      8153      8152      8155      8156      8153      8152      8155      8157
      8153      8152      8155      8158      8154      8152      8155      8156
      8154      8152      8155      8157      8154      8152      8155      8158
      8155      8158      8161      8162      8155      8158      8161      8163
      8155      8158      8161      8164      8156      8155      8158      8159
      8156      8155      8158      8160      8156      8155      8158      8161
      8157      8155      8158      8159      8157      8155      8158      8160
      8157      8155      8158      8161      8158      8161      8164      8165
      8158      8161      8164      8166      8158      8161      8164      8167
      8159      8158      8161      8162      8159      8158      8161      8163
      8159      8158      8161      8164      8160      8158      8161      8162
      8160      8158      8161      8163      8160      8158      8161      8164
      8161      8164      8167      8168      8161      8164      8167      8169
      8161      8164      8167      8170      8162      8161      8164      8165
      8162      8161      8164      8166      8162      8161      8164      8167
      8163      8161      8164      8165      8163      8161      8164      8166
      8163      8161      8164      8167      8164      8167      8170      8171
      8164      8167      8170      8172      8164      8167      8170      8173
      8165      8164      8167      8168      8165      8164      8167      8169
      8165      8164      8167      8170      8166      8164      8167      8168
      8166      8164      8167      8169      8166      8164      8167      8170
      8167      8170      8173      8174      8167      8170      8173      8175
      8167      8170      8173      8176      8168      8167      8170      8171
      8168      8167      8170      8172      8168      8167      8170      8173
      8169      8167      8170      8171      8169      8167      8170      8172
      8169      8167      8170      8173      8171      8170      8173      8174
      8171      8170      8173      8175      8171      8170      8173      8176
      8172      8170      8173      8174      8172      8170      8173      8175
      8172      8170      8173      8176      8177      8190      8193      8194
      8177      8190      8193      8195      8177      8190      8193      8200
      8178      8177      8182      8183      8178      8177      8182      8184
      8178      8177      8182      8185      8178      8177      8186      8187
      8178      8177      8186      8188      8178      8177      8186      8189
      8178      8177      8190      8191      8178      8177      8190      8192
      8178      8177      8190      8193      8179      8178      8177      8182
      8179      8178      8177      8186      8179      8178      8177      8190
      8180      8178      8177      8182      8180      8178      8177      8186
      8180      8178      8177      8190      8181      8178      8177      8182
      8181      8178      8177      8186      8181      8178      8177      8190
      8182      8177      8186      8187      8182      8177      8186      8188
      8182      8177      8186      8189      8182      8177      8190      8191
      8182      8177      8190      8192      8182      8177      8190      8193
      8183      8182      8177      8186      8183      8182      8177      8190
      8184      8182      8177      8186      8184      8182      8177      8190
      8185      8182      8177      8186      8185      8182      8177      8190
      8186      8177      8190      8191      8186      8177      8190      8192
      8186      8177      8190      8193      8187      8186      8177      8190
      8188      8186      8177      8190      8189      8186      8177      8190
      8190      8193      8200      8196      8191      8190      8193      8194
      8191      8190      8193      8195      8191      8190      8193      8200
      8192      8190      8193      8194      8192      8190      8193      8195
      8192      8190      8193      8200      8193      8200      8196      8197
      8193      8200      8196      8198      8193      8200      8196      8199
      8194      8193      8200      8196      8195      8193      8200      8196
      8196      8199      8201      8202      8196      8199      8201      8203
      8196      8199      8201      8206      8197      8196      8199      8201
      8198      8196      8199      8201      8199      8201      8206      8204
      8199      8201      8206      8207      8199      8201      8206      8208
      8200      8196      8199      8201      8201      8206      8204      8205
      8201      8206      8204      8256      8201      8206      8208      8209
      8201      8206      8208      8210      8201      8206      8208      8212
      8202      8201      8206      8204      8202      8201      8206      8207
      8202      8201      8206      8208      8203      8201      8206      8204
      8203      8201      8206      8207      8203      8201      8206      8208
      8204      8206      8208      8209      8204      8206      8208      8210
      8204      8206      8208      8212      8204      8256      8258      8259
      8204      8256      8258      8260      8204      8256      8258      8261
      8205      8204      8206      8207      8205      8204      8206      8208
      8205      8204      8256      8257      8205      8204      8256      8258
      8206      8204      8256      8257      8206      8204      8256      8258
      8206      8208      8210      8211      8206      8208      8212      8213
      8206      8208      8212      8214      8207      8206      8204      8256
      8207      8206      8208      8209      8207      8206      8208      8210
      8207      8206      8208      8212      8208      8206      8204      8256
      8208      8212      8214      8215      8208      8212      8214      8216
      8209      8208      8210      8211      8209      8208      8212      8213
      8209      8208      8212      8214      8210      8208      8212      8213
      8210      8208      8212      8214      8211      8210      8208      8212
      8212      8214      8216      8217      8212      8214      8216      8218
      8212      8214      8216      8219      8213      8212      8214      8215
      8213      8212      8214      8216      8214      8216      8219      8220
      8214      8216      8219      8221      8214      8216      8219      8222
      8215      8214      8216      8217      8215      8214      8216      8218
      8215      8214      8216      8219      8216      8219      8222      8223
      8216      8219      8222      8224      8216      8219      8222      8225
      8217      8216      8219      8220      8217      8216      8219      8221
      8217      8216      8219      8222      8218      8216      8219      8220
      8218      8216      8219      8221      8218      8216      8219      8222
      8219      8222      8225      8226      8219      8222      8225      8227
      8219      8222      8225      8228      8220      8219      8222      8223
      8220      8219      8222      8224      8220      8219      8222      8225
      8221      8219      8222      8223      8221      8219      8222      8224
      8221      8219      8222      8225      8222      8225      8228      8229
      8222      8225      8228      8230      8222      8225      8228      8231
      8223      8222      8225      8226      8223      8222      8225      8227
      8223      8222      8225      8228      8224      8222      8225      8226
      8224      8222      8225      8227      8224      8222      8225      8228
      8225      8228      8231      8232      8225      8228      8231      8233
      8225      8228      8231      8234      8226      8225      8228      8229
      8226      8225      8228      8230      8226      8225      8228      8231
      8227      8225      8228      8229      8227      8225      8228      8230
      8227      8225      8228      8231      8228      8231      8234      8235
      8228      8231      8234      8236      8228      8231      8234      8237
      8229      8228      8231      8232      8229      8228      8231      8233
      8229      8228      8231      8234      8230      8228      8231      8232
      8230      8228      8231      8233      8230      8228      8231      8234
      8231      8234      8237      8238      8231      8234      8237      8239
      8231      8234      8237      8240      8232      8231      8234      8235
      8232      8231      8234      8236      8232      8231      8234      8237
      8233      8231      8234      8235      8233      8231      8234      8236
      8233      8231      8234      8237      8234      8237      8240      8241
      8234      8237      8240      8242      8234      8237      8240      8243
      8235      8234      8237      8238      8235      8234      8237      8239
      8235      8234      8237      8240      8236      8234      8237      8238
      8236      8234      8237      8239      8236      8234      8237      8240
      8237      8240      8243      8244      8237      8240      8243      8245
      8237      8240      8243      8246      8238      8237      8240      8241
      8238      8237      8240      8242      8238      8237      8240      8243
      8239      8237      8240      8241      8239      8237      8240      8242
      8239      8237      8240      8243      8240      8243      8246      8247
      8240      8243      8246      8248      8240      8243      8246      8249
      8241      8240      8243      8244      8241      8240      8243      8245
      8241      8240      8243      8246      8242      8240      8243      8244
      8242      8240      8243      8245      8242      8240      8243      8246
      8243      8246      8249      8250      8243      8246      8249      8251
      8243      8246      8249      8252      8244      8243      8246      8247
      8244      8243      8246      8248      8244      8243      8246      8249
      8245      8243      8246      8247      8245      8243      8246      8248
      8245      8243      8246      8249      8246      8249      8252      8253
      8246      8249      8252      8254      8246      8249      8252      8255
      8247      8246      8249      8250      8247      8246      8249      8251
      8247      8246      8249      8252      8248      8246      8249      8250
      8248      8246      8249      8251      8248      8246      8249      8252
      8250      8249      8252      8253      8250      8249      8252      8254
      8250      8249      8252      8255      8251      8249      8252      8253
      8251      8249      8252      8254      8251      8249      8252      8255
      8256      8258      8261      8262      8256      8258      8261      8263
      8256      8258      8261      8264      8257      8256      8258      8259
      8257      8256      8258      8260      8257      8256      8258      8261
      8258      8261      8264      8265      8258      8261      8264      8266
      8258      8261      8264      8267      8259      8258      8261      8262
      8259      8258      8261      8263      8259      8258      8261      8264
      8260      8258      8261      8262      8260      8258      8261      8263
      8260      8258      8261      8264      8261      8264      8267      8268
      8261      8264      8267      8269      8261      8264      8267      8270
      8262      8261      8264      8265      8262      8261      8264      8266
      8262      8261      8264      8267      8263      8261      8264      8265
      8263      8261      8264      8266      8263      8261      8264      8267
      8264      8267      8270      8271      8264      8267      8270      8272
      8264      8267      8270      8273      8265      8264      8267      8268
      8265      8264      8267      8269      8265      8264      8267      8270
      8266      8264      8267      8268      8266      8264      8267      8269
      8266      8264      8267      8270      8267      8270      8273      8274
      8267      8270      8273      8275      8267      8270      8273      8276
      8268      8267      8270      8271      8268      8267      8270      8272
      8268      8267      8270      8273      8269      8267      8270      8271
      8269      8267      8270      8272      8269      8267      8270      8273
      8270      8273      8276      8277      8270      8273      8276      8278
      8270      8273      8276      8279      8271      8270      8273      8274
      8271      8270      8273      8275      8271      8270      8273      8276
      8272      8270      8273      8274      8272      8270      8273      8275
      8272      8270      8273      8276      8273      8276      8279      8280
      8273      8276      8279      8281      8274      8273      8276      8277
      8274      8273      8276      8278      8274      8273      8276      8279
      8275      8273      8276      8277      8275      8273      8276      8278
      8275      8273      8276      8279      8276      8279      8281      8282
      8276      8279      8281      8283      8277      8276      8279      8280
      8277      8276      8279      8281      8278      8276      8279      8280
      8278      8276      8279      8281      8279      8281      8283      8284
      8279      8281      8283      8285      8279      8281      8283      8286
      8280      8279      8281      8282      8280      8279      8281      8283
      8281      8283      8286      8287      8281      8283      8286      8288
      8281      8283      8286      8289      8282      8281      8283      8284
      8282      8281      8283      8285      8282      8281      8283      8286
      8283      8286      8289      8290      8283      8286      8289      8291
      8283      8286      8289      8292      8284      8283      8286      8287
      8284      8283      8286      8288      8284      8283      8286      8289
      8285      8283      8286      8287      8285      8283      8286      8288
      8285      8283      8286      8289      8286      8289      8292      8293
      8286      8289      8292      8294      8286      8289      8292      8295
      8287      8286      8289      8290      8287      8286      8289      8291
      8287      8286      8289      8292      8288      8286      8289      8290
      8288      8286      8289      8291      8288      8286      8289      8292
      8289      8292      8295      8296      8289      8292      8295      8297
      8289      8292      8295      8298      8290      8289      8292      8293
      8290      8289      8292      8294      8290      8289      8292      8295
      8291      8289      8292      8293      8291      8289      8292      8294
      8291      8289      8292      8295      8292      8295      8298      8299
      8292      8295      8298      8300      8292      8295      8298      8301
      8293      8292      8295      8296      8293      8292      8295      8297
      8293      8292      8295      8298      8294      8292      8295      8296
      8294      8292      8295      8297      8294      8292      8295      8298
      8295      8298      8301      8302      8295      8298      8301      8303
      8295      8298      8301      8304      8296      8295      8298      8299
      8296      8295      8298      8300      8296      8295      8298      8301
      8297      8295      8298      8299      8297      8295      8298      8300
      8297      8295      8298      8301      8298      8301      8304      8305
      8298      8301      8304      8306      8298      8301      8304      8307
      8299      8298      8301      8302      8299      8298      8301      8303
      8299      8298      8301      8304      8300      8298      8301      8302
      8300      8298      8301      8303      8300      8298      8301      8304
      8302      8301      8304      8305      8302      8301      8304      8306
      8302      8301      8304      8307      8303      8301      8304      8305
      8303      8301      8304      8306      8303      8301      8304      8307
      8308      8312      8315      8316      8308      8312      8315      8346
      8308      8354      8351      8346      8308      8354      8351      8352
      8308      8354      8351      8353      8309      8308      8310      8311
      8309      8308      8312      8313      8309      8308      8312      8314
      8309      8308      8312      8315      8309      8308      8354      8351
      8309      8308      8354      8355      8309      8308      8354      8356
      8310      8308      8312      8313      8310      8308      8312      8314
      8310      8308      8312      8315      8310      8308      8354      8351
      8310      8308      8354      8355      8310      8308      8354      8356
      8311      8310      8308      8312      8311      8310      8308      8354
      8312      8308      8354      8351      8312      8308      8354      8355
      8312      8308      8354      8356      8312      8315      8316      8317
      8312      8315      8316      8318      8312      8315      8346      8344
      8312      8315      8346      8347      8312      8315      8346      8351
      8313      8312      8308      8354      8313      8312      8315      8316
      8313      8312      8315      8346      8314      8312      8308      8354
      8314      8312      8315      8316      8314      8312      8315      8346
      8315      8312      8308      8354      8315      8316      8318      8319
      8315      8316      8318      8320      8315      8316      8318      8321
      8315      8346      8344      8321      8315      8346      8344      8341
      8315      8346      8344      8345      8315      8346      8347      8348
      8315      8346      8347      8349      8315      8346      8347      8350
      8315      8346      8351      8352      8315      8346      8351      8353
      8315      8346      8351      8354      8316      8315      8346      8344
      8316      8315      8346      8347      8316      8315      8346      8351
      8316      8318      8321      8322      8316      8318      8321      8323
      8316      8318      8321      8344      8317      8316      8315      8346
      8317      8316      8318      8319      8317      8316      8318      8320
      8317      8316      8318      8321      8318      8316      8315      8346
      8318      8321      8323      8324      8318      8321      8323      8325
      8318      8321      8323      8333      8318      8321      8344      8341
      8318      8321      8344      8345      8318      8321      8344      8346
      8319      8318      8321      8322      8319      8318      8321      8323
      8319      8318      8321      8344      8320      8318      8321      8322
      8320      8318      8321      8323      8320      8318      8321      8344
      8321      8323      8325      8326      8321      8323      8325      8327
      8321      8323      8325      8328      8321      8323      8333      8331
      8321      8323      8333      8334      8321      8323      8333      8338
      8321      8344      8341      8338      8321      8344      8341      8342
      8321      8344      8341      8343      8321      8344      8346      8347
      8321      8344      8346      8351      8322      8321      8323      8324
      8322      8321      8323      8325      8322      8321      8323      8333
      8322      8321      8344      8341      8322      8321      8344      8345
      8322      8321      8344      8346      8323      8321      8344      8341
      8323      8321      8344      8345      8323      8321      8344      8346
      8323      8325      8328      8329      8323      8325      8328      8330
      8323      8325      8328      8331      8323      8333      8331      8328
      8323      8333      8331      8332      8323      8333      8331      8357
      8323      8333      8334      8335      8323      8333      8334      8336
      8323      8333      8334      8337      8323      8333      8338      8339
      8323      8333      8338      8340      8323      8333      8338      8341
      8324      8323      8321      8344      8324      8323      8325      8326
      8324      8323      8325      8327      8324      8323      8325      8328
      8324      8323      8333      8331      8324      8323      8333      8334
      8324      8323      8333      8338      8325      8323      8321      8344
      8325      8323      8333      8331      8325      8323      8333      8334
      8325      8323      8333      8338      8325      8328      8331      8332
      8325      8328      8331      8333      8325      8328      8331      8357
      8326      8325      8323      8333      8326      8325      8328      8329
      8326      8325      8328      8330      8326      8325      8328      8331
      8327      8325      8323      8333      8327      8325      8328      8329
      8327      8325      8328      8330      8327      8325      8328      8331
      8328      8325      8323      8333      8328      8331      8333      8334
      8328      8331      8333      8338      8328      8331      8357      8358
      8328      8331      8357      8359      8328      8331      8357      8363
      8329      8328      8331      8332      8329      8328      8331      8333
      8329      8328      8331      8357      8330      8328      8331      8332
      8330      8328      8331      8333      8330      8328      8331      8357
      8331      8333      8334      8335      8331      8333      8334      8336
      8331      8333      8334      8337      8331      8333      8338      8339
      8331      8333      8338      8340      8331      8333      8338      8341
      8331      8357      8359      8360      8331      8357      8359      8361
      8331      8357      8359      8362      8331      8357      8363      8364
      8331      8357      8363      8365      8331      8357      8363      8366
      8332      8331      8333      8334      8332      8331      8333      8338
      8332      8331      8357      8358      8332      8331      8357      8359
      8332      8331      8357      8363      8333      8323      8321      8344
      8333      8331      8357      8358      8333      8331      8357      8359
      8333      8331      8357      8363      8333      8338      8341      8342
      8333      8338      8341      8343      8333      8338      8341      8344
      8334      8333      8331      8357      8334      8333      8338      8339
      8334      8333      8338      8340      8334      8333      8338      8341
      8335      8334      8333      8338      8336      8334      8333      8338
      8337      8334      8333      8338      8338      8333      8331      8357
      8338      8341      8344      8345      8338      8341      8344      8346
      8339      8338      8341      8342      8339      8338      8341      8343
      8339      8338      8341      8344      8340      8338      8341      8342
      8340      8338      8341      8343      8340      8338      8341      8344
      8341      8344      8346      8347      8341      8344      8346      8351
      8342      8341      8344      8345      8342      8341      8344      8346
      8343      8341      8344      8345      8343      8341      8344      8346
      8344      8346      8347      8348      8344      8346      8347      8349
      8344      8346      8347      8350      8344      8346      8351      8352
      8344      8346      8351      8353      8344      8346      8351      8354
      8345      8344      8346      8347      8345      8344      8346      8351
      8346      8351      8354      8355      8346      8351      8354      8356
      8347      8346      8351      8352      8347      8346      8351      8353
      8347      8346      8351      8354      8348      8347      8346      8351
      8349      8347      8346      8351      8350      8347      8346      8351
      8352      8351      8354      8355      8352      8351      8354      8356
      8353      8351      8354      8355      8353      8351      8354      8356
      8357      8363      8366      8367      8357      8363      8366      8368
      8357      8363      8366      8369      8358      8357      8359      8360
      8358      8357      8359      8361      8358      8357      8359      8362
      8358      8357      8363      8364      8358      8357      8363      8365
      8358      8357      8363      8366      8359      8357      8363      8364
      8359      8357      8363      8365      8359      8357      8363      8366
      8360      8359      8357      8363      8361      8359      8357      8363
      8362      8359      8357      8363      8363      8366      8369      8370
      8363      8366      8369      8371      8363      8366      8369      8372
      8364      8363      8366      8367      8364      8363      8366      8368
      8364      8363      8366      8369      8365      8363      8366      8367
      8365      8363      8366      8368      8365      8363      8366      8369
      8366      8369      8372      8373      8366      8369      8372      8374
      8366      8369      8372      8378      8367      8366      8369      8370
      8367      8366      8369      8371      8367      8366      8369      8372
      8368      8366      8369      8370      8368      8366      8369      8371
      8368      8366      8369      8372      8369      8372      8374      8375
      8369      8372      8374      8376      8369      8372      8374      8377
      8369      8372      8378      8379      8369      8372      8378      8380
      8369      8372      8378      8381      8370      8369      8372      8373
      8370      8369      8372      8374      8370      8369      8372      8378
      8371      8369      8372      8373      8371      8369      8372      8374
      8371      8369      8372      8378      8373      8372      8374      8375
      8373      8372      8374      8376      8373      8372      8374      8377
      8373      8372      8378      8379      8373      8372      8378      8380
      8373      8372      8378      8381      8374      8372      8378      8379
      8374      8372      8378      8380      8374      8372      8378      8381
      8375      8374      8372      8378      8376      8374      8372      8378
      8377      8374      8372      8378      8382      8383      8398      8399
      8382      8383      8398      8400      8382      8383      8398      8404
      8383      8382      8386      8387      8383      8382      8386      8388
      8383      8382      8386      8389      8383      8382      8390      8391
      8383      8382      8390      8392      8383      8382      8390      8393
      8383      8382      8394      8395      8383      8382      8394      8396
      8383      8382      8394      8397      8383      8398      8404      8401
      8384      8383      8382      8386      8384      8383      8382      8390
      8384      8383      8382      8394      8384      8383      8398      8399
      8384      8383      8398      8400      8384      8383      8398      8404
      8385      8383      8382      8386      8385      8383      8382      8390
      8385      8383      8382      8394      8385      8383      8398      8399
      8385      8383      8398      8400      8385      8383      8398      8404
      8386      8382      8383      8398      8386      8382      8390      8391
      8386      8382      8390      8392      8386      8382      8390      8393
      8386      8382      8394      8395      8386      8382      8394      8396
      8386      8382      8394      8397      8387      8386      8382      8390
      8387      8386      8382      8394      8388      8386      8382      8390
      8388      8386      8382      8394      8389      8386      8382      8390
      8389      8386      8382      8394      8390      8382      8383      8398
      8390      8382      8394      8395      8390      8382      8394      8396
      8390      8382      8394      8397      8391      8390      8382      8394
      8392      8390      8382      8394      8393      8390      8382      8394
      8394      8382      8383      8398      8398      8404      8401      8402
      8398      8404      8401      8403      8398      8404      8401      8405
      8399      8398      8404      8401      8400      8398      8404      8401
      8401      8405      8406      8407      8401      8405      8406      8408
      8401      8405      8406      8409      8402      8401      8405      8406
      8403      8401      8405      8406      8404      8401      8405      8406
      8405      8406      8409      8410      8405      8406      8409      8411
      8405      8406      8409      8417      8406      8409      8411      8412
      8406      8409      8417      8418      8406      8409      8417      8419
      8406      8409      8417      8420      8407      8406      8409      8410
      8407      8406      8409      8411      8407      8406      8409      8417
      8408      8406      8409      8410      8408      8406      8409      8411
      8408      8406      8409      8417      8409      8411      8412      8413
      8409      8411      8412      8414      8409      8417      8420      8421
      8410      8409      8411      8412      8410      8409      8417      8418
      8410      8409      8417      8419      8410      8409      8417      8420
      8411      8409      8417      8418      8411      8409      8417      8419
      8411      8409      8417      8420      8411      8412      8414      8415
      8411      8412      8414      8416      8411      8412      8414      8426
      8412      8411      8409      8417      8412      8414      8426      8427
      8412      8414      8426      8428      8412      8414      8426      8429
      8413      8412      8414      8415      8413      8412      8414      8416
      8413      8412      8414      8426      8414      8426      8429      8430
      8414      8426      8429      8431      8414      8426      8429      8432
      8415      8414      8426      8427      8415      8414      8426      8428
      8415      8414      8426      8429      8416      8414      8426      8427
      8416      8414      8426      8428      8416      8414      8426      8429
      8417      8420      8421      8422      8417      8420      8421      8423
      8418      8417      8420      8421      8419      8417      8420      8421
      8420      8421      8423      8424      8420      8421      8423      8425
      8420      8421      8423      8473      8421      8423      8473      8474
      8421      8423      8473      8475      8421      8423      8473      8476
      8422      8421      8423      8424      8422      8421      8423      8425
      8422      8421      8423      8473      8423      8473      8476      8477
      8423      8473      8476      8478      8423      8473      8476      8479
      8424      8423      8473      8474      8424      8423      8473      8475
      8424      8423      8473      8476      8425      8423      8473      8474
      8425      8423      8473      8475      8425      8423      8473      8476
      8426      8429      8432      8433      8426      8429      8432      8434
      8427      8426      8429      8430      8427      8426      8429      8431
      8427      8426      8429      8432      8428      8426      8429      8430
      8428      8426      8429      8431      8428      8426      8429      8432
      8429      8432      8434      8435      8429      8432      8434      8436
      8430      8429      8432      8433      8430      8429      8432      8434
      8431      8429      8432      8433      8431      8429      8432      8434
      8432      8434      8436      8437      8432      8434      8436      8438
      8432      8434      8436      8439      8433      8432      8434      8435
      8433      8432      8434      8436      8434      8436      8439      8440
      8434      8436      8439      8441      8435      8434      8436      8437
      8435      8434      8436      8438      8435      8434      8436      8439
      8436      8439      8441      8442      8436      8439      8441      8443
      8437      8436      8439      8440      8437      8436      8439      8441
      8438      8436      8439      8440      8438      8436      8439      8441
      8439      8441      8443      8444      8439      8441      8443      8445
      8439      8441      8443      8446      8440      8439      8441      8442
      8440      8439      8441      8443      8441      8443      8446      8447
      8441      8443      8446      8448      8442      8441      8443      8444
      8442      8441      8443      8445      8442      8441      8443      8446
      8443      8446      8448      8449      8443      8446      8448      8450
      8444      8443      8446      8447      8444      8443      8446      8448
      8445      8443      8446      8447      8445      8443      8446      8448
      8446      8448      8450      8451      8446      8448      8450      8452
      8446      8448      8450      8453      8447      8446      8448      8449
      8447      8446      8448      8450      8448      8450      8453      8454
      8448      8450      8453      8455      8449      8448      8450      8451
      8449      8448      8450      8452      8449      8448      8450      8453
      8450      8453      8455      8456      8450      8453      8455      8457
      8451      8450      8453      8454      8451      8450      8453      8455
      8452      8450      8453      8454      8452      8450      8453      8455
      8453      8455      8457      8458      8453      8455      8457      8459
      8453      8455      8457      8460      8454      8453      8455      8456
      8454      8453      8455      8457      8455      8457      8460      8461
      8455      8457      8460      8462      8455      8457      8460      8463
      8456      8455      8457      8458      8456      8455      8457      8459
      8456      8455      8457      8460      8457      8460      8463      8464
      8457      8460      8463      8465      8457      8460      8463      8466
      8458      8457      8460      8461      8458      8457      8460      8462
      8458      8457      8460      8463      8459      8457      8460      8461
      8459      8457      8460      8462      8459      8457      8460      8463
      8460      8463      8466      8467      8460      8463      8466      8468
      8460      8463      8466      8469      8461      8460      8463      8464
      8461      8460      8463      8465      8461      8460      8463      8466
      8462      8460      8463      8464      8462      8460      8463      8465
      8462      8460      8463      8466      8463      8466      8469      8470
      8463      8466      8469      8471      8463      8466      8469      8472
      8464      8463      8466      8467      8464      8463      8466      8468
      8464      8463      8466      8469      8465      8463      8466      8467
      8465      8463      8466      8468      8465      8463      8466      8469
      8467      8466      8469      8470      8467      8466      8469      8471
      8467      8466      8469      8472      8468      8466      8469      8470
      8468      8466      8469      8471      8468      8466      8469      8472
      8473      8476      8479      8480      8473      8476      8479      8481
      8473      8476      8479      8482      8474      8473      8476      8477
      8474      8473      8476      8478      8474      8473      8476      8479
      8475      8473      8476      8477      8475      8473      8476      8478
      8475      8473      8476      8479      8476      8479      8482      8483
      8476      8479      8482      8484      8476      8479      8482      8485
      8477      8476      8479      8480      8477      8476      8479      8481
      8477      8476      8479      8482      8478      8476      8479      8480
      8478      8476      8479      8481      8478      8476      8479      8482
      8479      8482      8485      8486      8479      8482      8485      8487
      8479      8482      8485      8488      8480      8479      8482      8483
      8480      8479      8482      8484      8480      8479      8482      8485
      8481      8479      8482      8483      8481      8479      8482      8484
      8481      8479      8482      8485      8482      8485      8488      8489
      8482      8485      8488      8490      8482      8485      8488      8491
      8483      8482      8485      8486      8483      8482      8485      8487
      8483      8482      8485      8488      8484      8482      8485      8486
      8484      8482      8485      8487      8484      8482      8485      8488
      8485      8488      8491      8492      8485      8488      8491      8493
      8485      8488      8491      8494      8486      8485      8488      8489
      8486      8485      8488      8490      8486      8485      8488      8491
      8487      8485      8488      8489      8487      8485      8488      8490
      8487      8485      8488      8491      8488      8491      8494      8495
      8488      8491      8494      8496      8488      8491      8494      8497
      8489      8488      8491      8492      8489      8488      8491      8493
      8489      8488      8491      8494      8490      8488      8491      8492
      8490      8488      8491      8493      8490      8488      8491      8494
      8491      8494      8497      8498      8491      8494      8497      8499
      8491      8494      8497      8500      8492      8491      8494      8495
      8492      8491      8494      8496      8492      8491      8494      8497
      8493      8491      8494      8495      8493      8491      8494      8496
      8493      8491      8494      8497      8494      8497      8500      8501
      8494      8497      8500      8502      8494      8497      8500      8503
      8495      8494      8497      8498      8495      8494      8497      8499
      8495      8494      8497      8500      8496      8494      8497      8498
      8496      8494      8497      8499      8496      8494      8497      8500
      8497      8500      8503      8504      8497      8500      8503      8505
      8497      8500      8503      8506      8498      8497      8500      8501
      8498      8497      8500      8502      8498      8497      8500      8503
      8499      8497      8500      8501      8499      8497      8500      8502
      8499      8497      8500      8503      8500      8503      8506      8507
      8500      8503      8506      8508      8500      8503      8506      8509
      8501      8500      8503      8504      8501      8500      8503      8505
      8501      8500      8503      8506      8502      8500      8503      8504
      8502      8500      8503      8505      8502      8500      8503      8506
      8503      8506      8509      8510      8503      8506      8509      8511
      8503      8506      8509      8512      8504      8503      8506      8507
      8504      8503      8506      8508      8504      8503      8506      8509
      8505      8503      8506      8507      8505      8503      8506      8508
      8505      8503      8506      8509      8506      8509      8512      8513
      8506      8509      8512      8514      8506      8509      8512      8515
      8507      8506      8509      8510      8507      8506      8509      8511
      8507      8506      8509      8512      8508      8506      8509      8510
      8508      8506      8509      8511      8508      8506      8509      8512
      8509      8512      8515      8516      8509      8512      8515      8517
      8509      8512      8515      8518      8510      8509      8512      8513
      8510      8509      8512      8514      8510      8509      8512      8515
      8511      8509      8512      8513      8511      8509      8512      8514
      8511      8509      8512      8515      8512      8515      8518      8519
      8512      8515      8518      8520      8512      8515      8518      8521
      8513      8512      8515      8516      8513      8512      8515      8517
      8513      8512      8515      8518      8514      8512      8515      8516
      8514      8512      8515      8517      8514      8512      8515      8518
      8516      8515      8518      8519      8516      8515      8518      8520
      8516      8515      8518      8521      8517      8515      8518      8519
      8517      8515      8518      8520      8517      8515      8518      8521
      8522      8526      8529      8530      8522      8526      8529      8560
      8522      8568      8565      8560      8522      8568      8565      8566
      8522      8568      8565      8567      8523      8522      8524      8525
      8523      8522      8526      8527      8523      8522      8526      8528
      8523      8522      8526      8529      8523      8522      8568      8565
      8523      8522      8568      8569      8523      8522      8568      8570
      8524      8522      8526      8527      8524      8522      8526      8528
      8524      8522      8526      8529      8524      8522      8568      8565
      8524      8522      8568      8569      8524      8522      8568      8570
      8525      8524      8522      8526      8525      8524      8522      8568
      8526      8522      8568      8565      8526      8522      8568      8569
      8526      8522      8568      8570      8526      8529      8530      8531
      8526      8529      8530      8532      8526      8529      8560      8558
      8526      8529      8560      8561      8526      8529      8560      8565
      8527      8526      8522      8568      8527      8526      8529      8530
      8527      8526      8529      8560      8528      8526      8522      8568
      8528      8526      8529      8530      8528      8526      8529      8560
      8529      8526      8522      8568      8529      8530      8532      8533
      8529      8530      8532      8534      8529      8530      8532      8535
      8529      8560      8558      8535      8529      8560      8558      8555
      8529      8560      8558      8559      8529      8560      8561      8562
      8529      8560      8561      8563      8529      8560      8561      8564
      8529      8560      8565      8566      8529      8560      8565      8567
      8529      8560      8565      8568      8530      8529      8560      8558
      8530      8529      8560      8561      8530      8529      8560      8565
      8530      8532      8535      8536      8530      8532      8535      8537
      8530      8532      8535      8558      8531      8530      8529      8560
      8531      8530      8532      8533      8531      8530      8532      8534
      8531      8530      8532      8535      8532      8530      8529      8560
      8532      8535      8537      8538      8532      8535      8537      8539
      8532      8535      8537      8547      8532      8535      8558      8555
      8532      8535      8558      8559      8532      8535      8558      8560
      8533      8532      8535      8536      8533      8532      8535      8537
      8533      8532      8535      8558      8534      8532      8535      8536
      8534      8532      8535      8537      8534      8532      8535      8558
      8535      8537      8539      8540      8535      8537      8539      8541
      8535      8537      8539      8542      8535      8537      8547      8545
      8535      8537      8547      8548      8535      8537      8547      8552
      8535      8558      8555      8552      8535      8558      8555      8556
      8535      8558      8555      8557      8535      8558      8560      8561
      8535      8558      8560      8565      8536      8535      8537      8538
      8536      8535      8537      8539      8536      8535      8537      8547
      8536      8535      8558      8555      8536      8535      8558      8559
      8536      8535      8558      8560      8537      8535      8558      8555
      8537      8535      8558      8559      8537      8535      8558      8560
      8537      8539      8542      8543      8537      8539      8542      8544
      8537      8539      8542      8545      8537      8547      8545      8542
      8537      8547      8545      8546      8537      8547      8545      8571
      8537      8547      8548      8549      8537      8547      8548      8550
      8537      8547      8548      8551      8537      8547      8552      8553
      8537      8547      8552      8554      8537      8547      8552      8555
      8538      8537      8535      8558      8538      8537      8539      8540
      8538      8537      8539      8541      8538      8537      8539      8542
      8538      8537      8547      8545      8538      8537      8547      8548
      8538      8537      8547      8552      8539      8537      8535      8558
      8539      8537      8547      8545      8539      8537      8547      8548
      8539      8537      8547      8552      8539      8542      8545      8546
      8539      8542      8545      8547      8539      8542      8545      8571
      8540      8539      8537      8547      8540      8539      8542      8543
      8540      8539      8542      8544      8540      8539      8542      8545
      8541      8539      8537      8547      8541      8539      8542      8543
      8541      8539      8542      8544      8541      8539      8542      8545
      8542      8539      8537      8547      8542      8545      8547      8548
      8542      8545      8547      8552      8542      8545      8571      8572
      8542      8545      8571      8573      8542      8545      8571      8577
      8543      8542      8545      8546      8543      8542      8545      8547
      8543      8542      8545      8571      8544      8542      8545      8546
      8544      8542      8545      8547      8544      8542      8545      8571
      8545      8547      8548      8549      8545      8547      8548      8550
      8545      8547      8548      8551      8545      8547      8552      8553
      8545      8547      8552      8554      8545      8547      8552      8555
      8545      8571      8573      8574      8545      8571      8573      8575
      8545      8571      8573      8576      8545      8571      8577      8578
      8545      8571      8577      8579      8545      8571      8577      8580
      8546      8545      8547      8548      8546      8545      8547      8552
      8546      8545      8571      8572      8546      8545      8571      8573
      8546      8545      8571      8577      8547      8537      8535      8558
      8547      8545      8571      8572      8547      8545      8571      8573
      8547      8545      8571      8577      8547      8552      8555      8556
      8547      8552      8555      8557      8547      8552      8555      8558
      8548      8547      8545      8571      8548      8547      8552      8553
      8548      8547      8552      8554      8548      8547      8552      8555
      8549      8548      8547      8552      8550      8548      8547      8552
      8551      8548      8547      8552      8552      8547      8545      8571
      8552      8555      8558      8559      8552      8555      8558      8560
      8553      8552      8555      8556      8553      8552      8555      8557
      8553      8552      8555      8558      8554      8552      8555      8556
      8554      8552      8555      8557      8554      8552      8555      8558
      8555      8558      8560      8561      8555      8558      8560      8565
      8556      8555      8558      8559      8556      8555      8558      8560
      8557      8555      8558      8559      8557      8555      8558      8560
      8558      8560      8561      8562      8558      8560      8561      8563
      8558      8560      8561      8564      8558      8560      8565      8566
      8558      8560      8565      8567      8558      8560      8565      8568
      8559      8558      8560      8561      8559      8558      8560      8565
      8560      8565      8568      8569      8560      8565      8568      8570
      8561      8560      8565      8566      8561      8560      8565      8567
      8561      8560      8565      8568      8562      8561      8560      8565
      8563      8561      8560      8565      8564      8561      8560      8565
      8566      8565      8568      8569      8566      8565      8568      8570
      8567      8565      8568      8569      8567      8565      8568      8570
      8571      8577      8580      8581      8571      8577      8580      8582
      8571      8577      8580      8583      8572      8571      8573      8574
      8572      8571      8573      8575      8572      8571      8573      8576
      8572      8571      8577      8578      8572      8571      8577      8579
      8572      8571      8577      8580      8573      8571      8577      8578
      8573      8571      8577      8579      8573      8571      8577      8580
      8574      8573      8571      8577      8575      8573      8571      8577
      8576      8573      8571      8577      8577      8580      8583      8584
      8577      8580      8583      8585      8577      8580      8583      8586
      8578      8577      8580      8581      8578      8577      8580      8582
      8578      8577      8580      8583      8579      8577      8580      8581
      8579      8577      8580      8582      8579      8577      8580      8583
      8580      8583      8586      8587      8580      8583      8586      8588
      8580      8583      8586      8592      8581      8580      8583      8584
      8581      8580      8583      8585      8581      8580      8583      8586
      8582      8580      8583      8584      8582      8580      8583      8585
      8582      8580      8583      8586      8583      8586      8588      8589
      8583      8586      8588      8590      8583      8586      8588      8591
      8583      8586      8592      8593      8583      8586      8592      8594
      8583      8586      8592      8595      8584      8583      8586      8587
      8584      8583      8586      8588      8584      8583      8586      8592
      8585      8583      8586      8587      8585      8583      8586      8588
      8585      8583      8586      8592      8587      8586      8588      8589
      8587      8586      8588      8590      8587      8586      8588      8591
      8587      8586      8592      8593      8587      8586      8592      8594
      8587      8586      8592      8595      8588      8586      8592      8593
      8588      8586      8592      8594      8588      8586      8592      8595
      8589      8588      8586      8592      8590      8588      8586      8592
      8591      8588      8586      8592      8596      8600      8602      8603
      8596      8600      8602      8604      8596      8600      8605      8606
      8596      8600      8605      8607      8596      8600      8605      8611
      8597      8596      8600      8601      8597      8596      8600      8602
      8597      8596      8600      8605      8598      8596      8600      8601
      8598      8596      8600      8602      8598      8596      8600      8605
      8599      8596      8600      8601      8599      8596      8600      8602
      8599      8596      8600      8605      8600      8605      8611      8608
      8601      8600      8602      8603      8601      8600      8602      8604
      8601      8600      8605      8606      8601      8600      8605      8607
      8601      8600      8605      8611      8602      8600      8605      8606
      8602      8600      8605      8607      8602      8600      8605      8611
      8603      8602      8600      8605      8604      8602      8600      8605
      8605      8611      8608      8609      8605      8611      8608      8610
      8605      8611      8608      8612      8606      8605      8611      8608
      8607      8605      8611      8608      8608      8612      8613      8614
      8608      8612      8613      8615      8608      8612      8613      8616
      8609      8608      8612      8613      8610      8608      8612      8613
      8611      8608      8612      8613      8612      8613      8616      8617
      8612      8613      8616      8618      8612      8613      8616      8624
      8613      8616      8618      8619      8613      8616      8624      8625
      8613      8616      8624      8626      8613      8616      8624      8627
      8614      8613      8616      8617      8614      8613      8616      8618
      8614      8613      8616      8624      8615      8613      8616      8617
      8615      8613      8616      8618      8615      8613      8616      8624
      8616      8618      8619      8620      8616      8618      8619      8621
      8616      8624      8627      8628      8617      8616      8618      8619
      8617      8616      8624      8625      8617      8616      8624      8626
      8617      8616      8624      8627      8618      8616      8624      8625
      8618      8616      8624      8626      8618      8616      8624      8627
      8618      8619      8621      8622      8618      8619      8621      8623
      8618      8619      8621      8633      8619      8618      8616      8624
      8619      8621      8633      8634      8619      8621      8633      8635
      8619      8621      8633      8636      8620      8619      8621      8622
      8620      8619      8621      8623      8620      8619      8621      8633
      8621      8633      8636      8637      8621      8633      8636      8638
      8621      8633      8636      8639      8622      8621      8633      8634
      8622      8621      8633      8635      8622      8621      8633      8636
      8623      8621      8633      8634      8623      8621      8633      8635
      8623      8621      8633      8636      8624      8627      8628      8629
      8624      8627      8628      8630      8625      8624      8627      8628
      8626      8624      8627      8628      8627      8628      8630      8631
      8627      8628      8630      8632      8627      8628      8630      8680
      8628      8630      8680      8681      8628      8630      8680      8682
      8628      8630      8680      8683      8629      8628      8630      8631
      8629      8628      8630      8632      8629      8628      8630      8680
      8630      8680      8683      8684      8630      8680      8683      8685
      8630      8680      8683      8686      8631      8630      8680      8681
      8631      8630      8680      8682      8631      8630      8680      8683
      8632      8630      8680      8681      8632      8630      8680      8682
      8632      8630      8680      8683      8633      8636      8639      8640
      8633      8636      8639      8641      8634      8633      8636      8637
      8634      8633      8636      8638      8634      8633      8636      8639
      8635      8633      8636      8637      8635      8633      8636      8638
      8635      8633      8636      8639      8636      8639      8641      8642
      8636      8639      8641      8643      8637      8636      8639      8640
      8637      8636      8639      8641      8638      8636      8639      8640
      8638      8636      8639      8641      8639      8641      8643      8644
      8639      8641      8643      8645      8639      8641      8643      8646
      8640      8639      8641      8642      8640      8639      8641      8643
      8641      8643      8646      8647      8641      8643      8646      8648
      8642      8641      8643      8644      8642      8641      8643      8645
      8642      8641      8643      8646      8643      8646      8648      8649
      8643      8646      8648      8650      8644      8643      8646      8647
      8644      8643      8646      8648      8645      8643      8646      8647
      8645      8643      8646      8648      8646      8648      8650      8651
      8646      8648      8650      8652      8646      8648      8650      8653
      8647      8646      8648      8649      8647      8646      8648      8650
      8648      8650      8653      8654      8648      8650      8653      8655
      8649      8648      8650      8651      8649      8648      8650      8652
      8649      8648      8650      8653      8650      8653      8655      8656
      8650      8653      8655      8657      8651      8650      8653      8654
      8651      8650      8653      8655      8652      8650      8653      8654
      8652      8650      8653      8655      8653      8655      8657      8658
      8653      8655      8657      8659      8653      8655      8657      8660
      8654      8653      8655      8656      8654      8653      8655      8657
      8655      8657      8660      8661      8655      8657      8660      8662
      8656      8655      8657      8658      8656      8655      8657      8659
      8656      8655      8657      8660      8657      8660      8662      8663
      8657      8660      8662      8664      8658      8657      8660      8661
      8658      8657      8660      8662      8659      8657      8660      8661
      8659      8657      8660      8662      8660      8662      8664      8665
      8660      8662      8664      8666      8660      8662      8664      8667
      8661      8660      8662      8663      8661      8660      8662      8664
      8662      8664      8667      8668      8662      8664      8667      8669
      8662      8664      8667      8670      8663      8662      8664      8665
      8663      8662      8664      8666      8663      8662      8664      8667
      8664      8667      8670      8671      8664      8667      8670      8672
      8664      8667      8670      8673      8665      8664      8667      8668
      8665      8664      8667      8669      8665      8664      8667      8670
      8666      8664      8667      8668      8666      8664      8667      8669
      8666      8664      8667      8670      8667      8670      8673      8674
      8667      8670      8673      8675      8667      8670      8673      8676
      8668      8667      8670      8671      8668      8667      8670      8672
      8668      8667      8670      8673      8669      8667      8670      8671
      8669      8667      8670      8672      8669      8667      8670      8673
      8670      8673      8676      8677      8670      8673      8676      8678
      8670      8673      8676      8679      8671      8670      8673      8674
      8671      8670      8673      8675      8671      8670      8673      8676
      8672      8670      8673      8674      8672      8670      8673      8675
      8672      8670      8673      8676      8674      8673      8676      8677
      8674      8673      8676      8678      8674      8673      8676      8679
      8675      8673      8676      8677      8675      8673      8676      8678
      8675      8673      8676      8679      8680      8683      8686      8687
      8680      8683      8686      8688      8680      8683      8686      8689
      8681      8680      8683      8684      8681      8680      8683      8685
      8681      8680      8683      8686      8682      8680      8683      8684
      8682      8680      8683      8685      8682      8680      8683      8686
      8683      8686      8689      8690      8683      8686      8689      8691
      8683      8686      8689      8692      8684      8683      8686      8687
      8684      8683      8686      8688      8684      8683      8686      8689
      8685      8683      8686      8687      8685      8683      8686      8688
      8685      8683      8686      8689      8686      8689      8692      8693
      8686      8689      8692      8694      8686      8689      8692      8695
      8687      8686      8689      8690      8687      8686      8689      8691
      8687      8686      8689      8692      8688      8686      8689      8690
      8688      8686      8689      8691      8688      8686      8689      8692
      8689      8692      8695      8696      8689      8692      8695      8697
      8689      8692      8695      8698      8690      8689      8692      8693
      8690      8689      8692      8694      8690      8689      8692      8695
      8691      8689      8692      8693      8691      8689      8692      8694
      8691      8689      8692      8695      8692      8695      8698      8699
      8692      8695      8698      8700      8692      8695      8698      8701
      8693      8692      8695      8696      8693      8692      8695      8697
      8693      8692      8695      8698      8694      8692      8695      8696
      8694      8692      8695      8697      8694      8692      8695      8698
      8695      8698      8701      8702      8695      8698      8701      8703
      8695      8698      8701      8704      8696      8695      8698      8699
      8696      8695      8698      8700      8696      8695      8698      8701
      8697      8695      8698      8699      8697      8695      8698      8700
      8697      8695      8698      8701      8698      8701      8704      8705
      8698      8701      8704      8706      8698      8701      8704      8707
      8699      8698      8701      8702      8699      8698      8701      8703
      8699      8698      8701      8704      8700      8698      8701      8702
      8700      8698      8701      8703      8700      8698      8701      8704
      8701      8704      8707      8708      8701      8704      8707      8709
      8701      8704      8707      8710      8702      8701      8704      8705
      8702      8701      8704      8706      8702      8701      8704      8707
      8703      8701      8704      8705      8703      8701      8704      8706
      8703      8701      8704      8707      8704      8707      8710      8711
      8704      8707      8710      8712      8704      8707      8710      8713
      8705      8704      8707      8708      8705      8704      8707      8709
      8705      8704      8707      8710      8706      8704      8707      8708
      8706      8704      8707      8709      8706      8704      8707      8710
      8707      8710      8713      8714      8707      8710      8713      8715
      8707      8710      8713      8716      8708      8707      8710      8711
      8708      8707      8710      8712      8708      8707      8710      8713
      8709      8707      8710      8711      8709      8707      8710      8712
      8709      8707      8710      8713      8710      8713      8716      8717
      8710      8713      8716      8718      8710      8713      8716      8719
      8711      8710      8713      8714      8711      8710      8713      8715
      8711      8710      8713      8716      8712      8710      8713      8714
      8712      8710      8713      8715      8712      8710      8713      8716
      8713      8716      8719      8720      8713      8716      8719      8721
      8713      8716      8719      8722      8714      8713      8716      8717
      8714      8713      8716      8718      8714      8713      8716      8719
      8715      8713      8716      8717      8715      8713      8716      8718
      8715      8713      8716      8719      8716      8719      8722      8723
      8716      8719      8722      8724      8716      8719      8722      8725
      8717      8716      8719      8720      8717      8716      8719      8721
      8717      8716      8719      8722      8718      8716      8719      8720
      8718      8716      8719      8721      8718      8716      8719      8722
      8719      8722      8725      8726      8719      8722      8725      8727
      8719      8722      8725      8728      8720      8719      8722      8723
      8720      8719      8722      8724      8720      8719      8722      8725
      8721      8719      8722      8723      8721      8719      8722      8724
      8721      8719      8722      8725      8723      8722      8725      8726
      8723      8722      8725      8727      8723      8722      8725      8728
      8724      8722      8725      8726      8724      8722      8725      8727
      8724      8722      8725      8728      8729      8742      8745      8746
      8729      8742      8745      8747      8729      8742      8745      8752
      8730      8729      8734      8735      8730      8729      8734      8736
      8730      8729      8734      8737      8730      8729      8738      8739
      8730      8729      8738      8740      8730      8729      8738      8741
      8730      8729      8742      8743      8730      8729      8742      8744
      8730      8729      8742      8745      8731      8730      8729      8734
      8731      8730      8729      8738      8731      8730      8729      8742
      8732      8730      8729      8734      8732      8730      8729      8738
      8732      8730      8729      8742      8733      8730      8729      8734
      8733      8730      8729      8738      8733      8730      8729      8742
      8734      8729      8738      8739      8734      8729      8738      8740
      8734      8729      8738      8741      8734      8729      8742      8743
      8734      8729      8742      8744      8734      8729      8742      8745
      8735      8734      8729      8738      8735      8734      8729      8742
      8736      8734      8729      8738      8736      8734      8729      8742
      8737      8734      8729      8738      8737      8734      8729      8742
      8738      8729      8742      8743      8738      8729      8742      8744
      8738      8729      8742      8745      8739      8738      8729      8742
      8740      8738      8729      8742      8741      8738      8729      8742
      8742      8745      8752      8748      8743      8742      8745      8746
      8743      8742      8745      8747      8743      8742      8745      8752
      8744      8742      8745      8746      8744      8742      8745      8747
      8744      8742      8745      8752      8745      8752      8748      8749
      8745      8752      8748      8750      8745      8752      8748      8751
      8746      8745      8752      8748      8747      8745      8752      8748
      8748      8751      8753      8754      8748      8751      8753      8755
      8748      8751      8753      8758      8749      8748      8751      8753
      8750      8748      8751      8753      8751      8753      8758      8756
      8751      8753      8758      8759      8751      8753      8758      8760
      8752      8748      8751      8753      8753      8758      8756      8757
      8753      8758      8756      8808      8753      8758      8760      8761
      8753      8758      8760      8762      8753      8758      8760      8764
      8754      8753      8758      8756      8754      8753      8758      8759
      8754      8753      8758      8760      8755      8753      8758      8756
      8755      8753      8758      8759      8755      8753      8758      8760
      8756      8758      8760      8761      8756      8758      8760      8762
      8756      8758      8760      8764      8756      8808      8810      8811
      8756      8808      8810      8812      8756      8808      8810      8813
      8757      8756      8758      8759      8757      8756      8758      8760
      8757      8756      8808      8809      8757      8756      8808      8810
      8758      8756      8808      8809      8758      8756      8808      8810
      8758      8760      8762      8763      8758      8760      8764      8765
      8758      8760      8764      8766      8759      8758      8756      8808
      8759      8758      8760      8761      8759      8758      8760      8762
      8759      8758      8760      8764      8760      8758      8756      8808
      8760      8764      8766      8767      8760      8764      8766      8768
      8761      8760      8762      8763      8761      8760      8764      8765
      8761      8760      8764      8766      8762      8760      8764      8765
      8762      8760      8764      8766      8763      8762      8760      8764
      8764      8766      8768      8769      8764      8766      8768      8770
      8764      8766      8768      8771      8765      8764      8766      8767
      8765      8764      8766      8768      8766      8768      8771      8772
      8766      8768      8771      8773      8766      8768      8771      8774
      8767      8766      8768      8769      8767      8766      8768      8770
      8767      8766      8768      8771      8768      8771      8774      8775
      8768      8771      8774      8776      8768      8771      8774      8777
      8769      8768      8771      8772      8769      8768      8771      8773
      8769      8768      8771      8774      8770      8768      8771      8772
      8770      8768      8771      8773      8770      8768      8771      8774
      8771      8774      8777      8778      8771      8774      8777      8779
      8771      8774      8777      8780      8772      8771      8774      8775
      8772      8771      8774      8776      8772      8771      8774      8777
      8773      8771      8774      8775      8773      8771      8774      8776
      8773      8771      8774      8777      8774      8777      8780      8781
      8774      8777      8780      8782      8774      8777      8780      8783
      8775      8774      8777      8778      8775      8774      8777      8779
      8775      8774      8777      8780      8776      8774      8777      8778
      8776      8774      8777      8779      8776      8774      8777      8780
      8777      8780      8783      8784      8777      8780      8783      8785
      8777      8780      8783      8786      8778      8777      8780      8781
      8778      8777      8780      8782      8778      8777      8780      8783
      8779      8777      8780      8781      8779      8777      8780      8782
      8779      8777      8780      8783      8780      8783      8786      8787
      8780      8783      8786      8788      8780      8783      8786      8789
      8781      8780      8783      8784      8781      8780      8783      8785
      8781      8780      8783      8786      8782      8780      8783      8784
      8782      8780      8783      8785      8782      8780      8783      8786
      8783      8786      8789      8790      8783      8786      8789      8791
      8783      8786      8789      8792      8784      8783      8786      8787
      8784      8783      8786      8788      8784      8783      8786      8789
      8785      8783      8786      8787      8785      8783      8786      8788
      8785      8783      8786      8789      8786      8789      8792      8793
      8786      8789      8792      8794      8786      8789      8792      8795
      8787      8786      8789      8790      8787      8786      8789      8791
      8787      8786      8789      8792      8788      8786      8789      8790
      8788      8786      8789      8791      8788      8786      8789      8792
      8789      8792      8795      8796      8789      8792      8795      8797
      8789      8792      8795      8798      8790      8789      8792      8793
      8790      8789      8792      8794      8790      8789      8792      8795
      8791      8789      8792      8793      8791      8789      8792      8794
      8791      8789      8792      8795      8792      8795      8798      8799
      8792      8795      8798      8800      8792      8795      8798      8801
      8793      8792      8795      8796      8793      8792      8795      8797
      8793      8792      8795      8798      8794      8792      8795      8796
      8794      8792      8795      8797      8794      8792      8795      8798
      8795      8798      8801      8802      8795      8798      8801      8803
      8795      8798      8801      8804      8796      8795      8798      8799
      8796      8795      8798      8800      8796      8795      8798      8801
      8797      8795      8798      8799      8797      8795      8798      8800
      8797      8795      8798      8801      8798      8801      8804      8805
      8798      8801      8804      8806      8798      8801      8804      8807
      8799      8798      8801      8802      8799      8798      8801      8803
      8799      8798      8801      8804      8800      8798      8801      8802
      8800      8798      8801      8803      8800      8798      8801      8804
      8802      8801      8804      8805      8802      8801      8804      8806
      8802      8801      8804      8807      8803      8801      8804      8805
      8803      8801      8804      8806      8803      8801      8804      8807
      8808      8810      8813      8814      8808      8810      8813      8815
      8808      8810      8813      8816      8809      8808      8810      8811
      8809      8808      8810      8812      8809      8808      8810      8813
      8810      8813      8816      8817      8810      8813      8816      8818
      8810      8813      8816      8819      8811      8810      8813      8814
      8811      8810      8813      8815      8811      8810      8813      8816
      8812      8810      8813      8814      8812      8810      8813      8815
      8812      8810      8813      8816      8813      8816      8819      8820
      8813      8816      8819      8821      8813      8816      8819      8822
      8814      8813      8816      8817      8814      8813      8816      8818
      8814      8813      8816      8819      8815      8813      8816      8817
      8815      8813      8816      8818      8815      8813      8816      8819
      8816      8819      8822      8823      8816      8819      8822      8824
      8816      8819      8822      8825      8817      8816      8819      8820
      8817      8816      8819      8821      8817      8816      8819      8822
      8818      8816      8819      8820      8818      8816      8819      8821
      8818      8816      8819      8822      8819      8822      8825      8826
      8819      8822      8825      8827      8819      8822      8825      8828
      8820      8819      8822      8823      8820      8819      8822      8824
      8820      8819      8822      8825      8821      8819      8822      8823
      8821      8819      8822      8824      8821      8819      8822      8825
      8822      8825      8828      8829      8822      8825      8828      8830
      8822      8825      8828      8831      8823      8822      8825      8826
      8823      8822      8825      8827      8823      8822      8825      8828
      8824      8822      8825      8826      8824      8822      8825      8827
      8824      8822      8825      8828      8825      8828      8831      8832
      8825      8828      8831      8833      8826      8825      8828      8829
      8826      8825      8828      8830      8826      8825      8828      8831
      8827      8825      8828      8829      8827      8825      8828      8830
      8827      8825      8828      8831      8828      8831      8833      8834
      8828      8831      8833      8835      8829      8828      8831      8832
      8829      8828      8831      8833      8830      8828      8831      8832
      8830      8828      8831      8833      8831      8833      8835      8836
      8831      8833      8835      8837      8831      8833      8835      8838
      8832      8831      8833      8834      8832      8831      8833      8835
      8833      8835      8838      8839      8833      8835      8838      8840
      8833      8835      8838      8841      8834      8833      8835      8836
      8834      8833      8835      8837      8834      8833      8835      8838
      8835      8838      8841      8842      8835      8838      8841      8843
      8835      8838      8841      8844      8836      8835      8838      8839
      8836      8835      8838      8840      8836      8835      8838      8841
      8837      8835      8838      8839      8837      8835      8838      8840
      8837      8835      8838      8841      8838      8841      8844      8845
      8838      8841      8844      8846      8838      8841      8844      8847
      8839      8838      8841      8842      8839      8838      8841      8843
      8839      8838      8841      8844      8840      8838      8841      8842
      8840      8838      8841      8843      8840      8838      8841      8844
      8841      8844      8847      8848      8841      8844      8847      8849
      8841      8844      8847      8850      8842      8841      8844      8845
      8842      8841      8844      8846      8842      8841      8844      8847
      8843      8841      8844      8845      8843      8841      8844      8846
      8843      8841      8844      8847      8844      8847      8850      8851
      8844      8847      8850      8852      8844      8847      8850      8853
      8845      8844      8847      8848      8845      8844      8847      8849
      8845      8844      8847      8850      8846      8844      8847      8848
      8846      8844      8847      8849      8846      8844      8847      8850
      8847      8850      8853      8854      8847      8850      8853      8855
      8847      8850      8853      8856      8848      8847      8850      8851
      8848      8847      8850      8852      8848      8847      8850      8853
      8849      8847      8850      8851      8849      8847      8850      8852
      8849      8847      8850      8853      8850      8853      8856      8857
      8850      8853      8856      8858      8850      8853      8856      8859
      8851      8850      8853      8854      8851      8850      8853      8855
      8851      8850      8853      8856      8852      8850      8853      8854
      8852      8850      8853      8855      8852      8850      8853      8856
      8854      8853      8856      8857      8854      8853      8856      8858
      8854      8853      8856      8859      8855      8853      8856      8857
      8855      8853      8856      8858      8855      8853      8856      8859
      8860      8864      8867      8868      8860      8864      8867      8869
      8860      8864      8867      8873      8861      8860      8864      8865
      8861      8860      8864      8866      8861      8860      8864      8867
      8862      8860      8864      8865      8862      8860      8864      8866
      8862      8860      8864      8867      8863      8860      8864      8865
      8863      8860      8864      8866      8863      8860      8864      8867
      8864      8867      8873      8870      8865      8864      8867      8868
      8865      8864      8867      8869      8865      8864      8867      8873
      8866      8864      8867      8868      8866      8864      8867      8869
      8866      8864      8867      8873      8867      8873      8870      8871
      8867      8873      8870      8872      8867      8873      8870      8874
      8868      8867      8873      8870      8869      8867      8873      8870
      8870      8874      8875      8876      8870      8874      8875      8877
      8870      8874      8875      8878      8871      8870      8874      8875
      8872      8870      8874      8875      8873      8870      8874      8875
      8874      8875      8878      8879      8874      8875      8878      8880
      8874      8875      8878      8886      8875      8878      8880      8881
      8875      8878      8886      8887      8875      8878      8886      8888
      8875      8878      8886      8889      8876      8875      8878      8879
      8876      8875      8878      8880      8876      8875      8878      8886
      8877      8875      8878      8879      8877      8875      8878      8880
      8877      8875      8878      8886      8878      8880      8881      8882
      8878      8880      8881      8883      8878      8886      8889      8890
      8879      8878      8880      8881      8879      8878      8886      8887
      8879      8878      8886      8888      8879      8878      8886      8889
      8880      8878      8886      8887      8880      8878      8886      8888
      8880      8878      8886      8889      8880      8881      8883      8884
      8880      8881      8883      8885      8880      8881      8883      8895
      8881      8880      8878      8886      8881      8883      8895      8896
      8881      8883      8895      8897      8881      8883      8895      8898
      8882      8881      8883      8884      8882      8881      8883      8885
      8882      8881      8883      8895      8883      8895      8898      8899
      8883      8895      8898      8900      8883      8895      8898      8901
      8884      8883      8895      8896      8884      8883      8895      8897
      8884      8883      8895      8898      8885      8883      8895      8896
      8885      8883      8895      8897      8885      8883      8895      8898
      8886      8889      8890      8891      8886      8889      8890      8892
      8887      8886      8889      8890      8888      8886      8889      8890
      8889      8890      8892      8893      8889      8890      8892      8894
      8889      8890      8892      8942      8890      8892      8942      8943
      8890      8892      8942      8944      8890      8892      8942      8945
      8891      8890      8892      8893      8891      8890      8892      8894
      8891      8890      8892      8942      8892      8942      8945      8946
      8892      8942      8945      8947      8892      8942      8945      8948
      8893      8892      8942      8943      8893      8892      8942      8944
      8893      8892      8942      8945      8894      8892      8942      8943
      8894      8892      8942      8944      8894      8892      8942      8945
      8895      8898      8901      8902      8895      8898      8901      8903
      8896      8895      8898      8899      8896      8895      8898      8900
      8896      8895      8898      8901      8897      8895      8898      8899
      8897      8895      8898      8900      8897      8895      8898      8901
      8898      8901      8903      8904      8898      8901      8903      8905
      8899      8898      8901      8902      8899      8898      8901      8903
      8900      8898      8901      8902      8900      8898      8901      8903
      8901      8903      8905      8906      8901      8903      8905      8907
      8901      8903      8905      8908      8902      8901      8903      8904
      8902      8901      8903      8905      8903      8905      8908      8909
      8903      8905      8908      8910      8904      8903      8905      8906
      8904      8903      8905      8907      8904      8903      8905      8908
      8905      8908      8910      8911      8905      8908      8910      8912
      8906      8905      8908      8909      8906      8905      8908      8910
      8907      8905      8908      8909      8907      8905      8908      8910
      8908      8910      8912      8913      8908      8910      8912      8914
      8908      8910      8912      8915      8909      8908      8910      8911
      8909      8908      8910      8912      8910      8912      8915      8916
      8910      8912      8915      8917      8911      8910      8912      8913
      8911      8910      8912      8914      8911      8910      8912      8915
      8912      8915      8917      8918      8912      8915      8917      8919
      8913      8912      8915      8916      8913      8912      8915      8917
      8914      8912      8915      8916      8914      8912      8915      8917
      8915      8917      8919      8920      8915      8917      8919      8921
      8915      8917      8919      8922      8916      8915      8917      8918
      8916      8915      8917      8919      8917      8919      8922      8923
      8917      8919      8922      8924      8918      8917      8919      8920
      8918      8917      8919      8921      8918      8917      8919      8922
      8919      8922      8924      8925      8919      8922      8924      8926
      8920      8919      8922      8923      8920      8919      8922      8924
      8921      8919      8922      8923      8921      8919      8922      8924
      8922      8924      8926      8927      8922      8924      8926      8928
      8922      8924      8926      8929      8923      8922      8924      8925
      8923      8922      8924      8926      8924      8926      8929      8930
      8924      8926      8929      8931      8924      8926      8929      8932
      8925      8924      8926      8927      8925      8924      8926      8928
      8925      8924      8926      8929      8926      8929      8932      8933
      8926      8929      8932      8934      8926      8929      8932      8935
      8927      8926      8929      8930      8927      8926      8929      8931
      8927      8926      8929      8932      8928      8926      8929      8930
      8928      8926      8929      8931      8928      8926      8929      8932
      8929      8932      8935      8936      8929      8932      8935      8937
      8929      8932      8935      8938      8930      8929      8932      8933
      8930      8929      8932      8934      8930      8929      8932      8935
      8931      8929      8932      8933      8931      8929      8932      8934
      8931      8929      8932      8935      8932      8935      8938      8939
      8932      8935      8938      8940      8932      8935      8938      8941
      8933      8932      8935      8936      8933      8932      8935      8937
      8933      8932      8935      8938      8934      8932      8935      8936
      8934      8932      8935      8937      8934      8932      8935      8938
      8936      8935      8938      8939      8936      8935      8938      8940
      8936      8935      8938      8941      8937      8935      8938      8939
      8937      8935      8938      8940      8937      8935      8938      8941
      8942      8945      8948      8949      8942      8945      8948      8950
      8942      8945      8948      8951      8943      8942      8945      8946
      8943      8942      8945      8947      8943      8942      8945      8948
      8944      8942      8945      8946      8944      8942      8945      8947
      8944      8942      8945      8948      8945      8948      8951      8952
      8945      8948      8951      8953      8945      8948      8951      8954
      8946      8945      8948      8949      8946      8945      8948      8950
      8946      8945      8948      8951      8947      8945      8948      8949
      8947      8945      8948      8950      8947      8945      8948      8951
      8948      8951      8954      8955      8948      8951      8954      8956
      8948      8951      8954      8957      8949      8948      8951      8952
      8949      8948      8951      8953      8949      8948      8951      8954
      8950      8948      8951      8952      8950      8948      8951      8953
      8950      8948      8951      8954      8951      8954      8957      8958
      8951      8954      8957      8959      8951      8954      8957      8960
      8952      8951      8954      8955      8952      8951      8954      8956
      8952      8951      8954      8957      8953      8951      8954      8955
      8953      8951      8954      8956      8953      8951      8954      8957
      8954      8957      8960      8961      8954      8957      8960      8962
      8954      8957      8960      8963      8955      8954      8957      8958
      8955      8954      8957      8959      8955      8954      8957      8960
      8956      8954      8957      8958      8956      8954      8957      8959
      8956      8954      8957      8960      8957      8960      8963      8964
      8957      8960      8963      8965      8957      8960      8963      8966
      8958      8957      8960      8961      8958      8957      8960      8962
      8958      8957      8960      8963      8959      8957      8960      8961
      8959      8957      8960      8962      8959      8957      8960      8963
      8960      8963      8966      8967      8960      8963      8966      8968
      8960      8963      8966      8969      8961      8960      8963      8964
      8961      8960      8963      8965      8961      8960      8963      8966
      8962      8960      8963      8964      8962      8960      8963      8965
      8962      8960      8963      8966      8963      8966      8969      8970
      8963      8966      8969      8971      8963      8966      8969      8972
      8964      8963      8966      8967      8964      8963      8966      8968
      8964      8963      8966      8969      8965      8963      8966      8967
      8965      8963      8966      8968      8965      8963      8966      8969
      8966      8969      8972      8973      8966      8969      8972      8974
      8966      8969      8972      8975      8967      8966      8969      8970
      8967      8966      8969      8971      8967      8966      8969      8972
      8968      8966      8969      8970      8968      8966      8969      8971
      8968      8966      8969      8972      8969      8972      8975      8976
      8969      8972      8975      8977      8969      8972      8975      8978
      8970      8969      8972      8973      8970      8969      8972      8974
      8970      8969      8972      8975      8971      8969      8972      8973
      8971      8969      8972      8974      8971      8969      8972      8975
      8972      8975      8978      8979      8972      8975      8978      8980
      8972      8975      8978      8981      8973      8972      8975      8976
      8973      8972      8975      8977      8973      8972      8975      8978
      8974      8972      8975      8976      8974      8972      8975      8977
      8974      8972      8975      8978      8975      8978      8981      8982
      8975      8978      8981      8983      8975      8978      8981      8984
      8976      8975      8978      8979      8976      8975      8978      8980
      8976      8975      8978      8981      8977      8975      8978      8979
      8977      8975      8978      8980      8977      8975      8978      8981
      8978      8981      8984      8985      8978      8981      8984      8986
      8978      8981      8984      8987      8979      8978      8981      8982
      8979      8978      8981      8983      8979      8978      8981      8984
      8980      8978      8981      8982      8980      8978      8981      8983
      8980      8978      8981      8984      8981      8984      8987      8988
      8981      8984      8987      8989      8981      8984      8987      8990
      8982      8981      8984      8985      8982      8981      8984      8986
      8982      8981      8984      8987      8983      8981      8984      8985
      8983      8981      8984      8986      8983      8981      8984      8987
      8985      8984      8987      8988      8985      8984      8987      8989
      8985      8984      8987      8990      8986      8984      8987      8988
      8986      8984      8987      8989      8986      8984      8987      8990
      8991      9004      9007      9008      8991      9004      9007      9009
      8991      9004      9007      9014      8992      8991      8996      8997
      8992      8991      8996      8998      8992      8991      8996      8999
      8992      8991      9000      9001      8992      8991      9000      9002
      8992      8991      9000      9003      8992      8991      9004      9005
      8992      8991      9004      9006      8992      8991      9004      9007
      8993      8992      8991      8996      8993      8992      8991      9000
      8993      8992      8991      9004      8994      8992      8991      8996
      8994      8992      8991      9000      8994      8992      8991      9004
      8995      8992      8991      8996      8995      8992      8991      9000
      8995      8992      8991      9004      8996      8991      9000      9001
      8996      8991      9000      9002      8996      8991      9000      9003
      8996      8991      9004      9005      8996      8991      9004      9006
      8996      8991      9004      9007      8997      8996      8991      9000
      8997      8996      8991      9004      8998      8996      8991      9000
      8998      8996      8991      9004      8999      8996      8991      9000
      8999      8996      8991      9004      9000      8991      9004      9005
      9000      8991      9004      9006      9000      8991      9004      9007
      9001      9000      8991      9004      9002      9000      8991      9004
      9003      9000      8991      9004      9004      9007      9014      9010
      9005      9004      9007      9008      9005      9004      9007      9009
      9005      9004      9007      9014      9006      9004      9007      9008
      9006      9004      9007      9009      9006      9004      9007      9014
      9007      9014      9010      9011      9007      9014      9010      9012
      9007      9014      9010      9013      9008      9007      9014      9010
      9009      9007      9014      9010      9010      9013      9015      9016
      9010      9013      9015      9017      9010      9013      9015      9020
      9011      9010      9013      9015      9012      9010      9013      9015
      9013      9015      9020      9018      9013      9015      9020      9021
      9013      9015      9020      9022      9014      9010      9013      9015
      9015      9020      9018      9019      9015      9020      9018      9070
      9015      9020      9022      9023      9015      9020      9022      9024
      9015      9020      9022      9026      9016      9015      9020      9018
      9016      9015      9020      9021      9016      9015      9020      9022
      9017      9015      9020      9018      9017      9015      9020      9021
      9017      9015      9020      9022      9018      9020      9022      9023
      9018      9020      9022      9024      9018      9020      9022      9026
      9018      9070      9072      9073      9018      9070      9072      9074
      9018      9070      9072      9075      9019      9018      9020      9021
      9019      9018      9020      9022      9019      9018      9070      9071
      9019      9018      9070      9072      9020      9018      9070      9071
      9020      9018      9070      9072      9020      9022      9024      9025
      9020      9022      9026      9027      9020      9022      9026      9028
      9021      9020      9018      9070      9021      9020      9022      9023
      9021      9020      9022      9024      9021      9020      9022      9026
      9022      9020      9018      9070      9022      9026      9028      9029
      9022      9026      9028      9030      9023      9022      9024      9025
      9023      9022      9026      9027      9023      9022      9026      9028
      9024      9022      9026      9027      9024      9022      9026      9028
      9025      9024      9022      9026      9026      9028      9030      9031
      9026      9028      9030      9032      9026      9028      9030      9033
      9027      9026      9028      9029      9027      9026      9028      9030
      9028      9030      9033      9034      9028      9030      9033      9035
      9028      9030      9033      9036      9029      9028      9030      9031
      9029      9028      9030      9032      9029      9028      9030      9033
      9030      9033      9036      9037      9030      9033      9036      9038
      9030      9033      9036      9039      9031      9030      9033      9034
      9031      9030      9033      9035      9031      9030      9033      9036
      9032      9030      9033      9034      9032      9030      9033      9035
      9032      9030      9033      9036      9033      9036      9039      9040
      9033      9036      9039      9041      9033      9036      9039      9042
      9034      9033      9036      9037      9034      9033      9036      9038
      9034      9033      9036      9039      9035      9033      9036      9037
      9035      9033      9036      9038      9035      9033      9036      9039
      9036      9039      9042      9043      9036      9039      9042      9044
      9036      9039      9042      9045      9037      9036      9039      9040
      9037      9036      9039      9041      9037      9036      9039      9042
      9038      9036      9039      9040      9038      9036      9039      9041
      9038      9036      9039      9042      9039      9042      9045      9046
      9039      9042      9045      9047      9039      9042      9045      9048
      9040      9039      9042      9043      9040      9039      9042      9044
      9040      9039      9042      9045      9041      9039      9042      9043
      9041      9039      9042      9044      9041      9039      9042      9045
      9042      9045      9048      9049      9042      9045      9048      9050
      9042      9045      9048      9051      9043      9042      9045      9046
      9043      9042      9045      9047      9043      9042      9045      9048
      9044      9042      9045      9046      9044      9042      9045      9047
      9044      9042      9045      9048      9045      9048      9051      9052
      9045      9048      9051      9053      9045      9048      9051      9054
      9046      9045      9048      9049      9046      9045      9048      9050
      9046      9045      9048      9051      9047      9045      9048      9049
      9047      9045      9048      9050      9047      9045      9048      9051
      9048      9051      9054      9055      9048      9051      9054      9056
      9048      9051      9054      9057      9049      9048      9051      9052
      9049      9048      9051      9053      9049      9048      9051      9054
      9050      9048      9051      9052      9050      9048      9051      9053
      9050      9048      9051      9054      9051      9054      9057      9058
      9051      9054      9057      9059      9051      9054      9057      9060
      9052      9051      9054      9055      9052      9051      9054      9056
      9052      9051      9054      9057      9053      9051      9054      9055
      9053      9051      9054      9056      9053      9051      9054      9057
      9054      9057      9060      9061      9054      9057      9060      9062
      9054      9057      9060      9063      9055      9054      9057      9058
      9055      9054      9057      9059      9055      9054      9057      9060
      9056      9054      9057      9058      9056      9054      9057      9059
      9056      9054      9057      9060      9057      9060      9063      9064
      9057      9060      9063      9065      9057      9060      9063      9066
      9058      9057      9060      9061      9058      9057      9060      9062
      9058      9057      9060      9063      9059      9057      9060      9061
      9059      9057      9060      9062      9059      9057      9060      9063
      9060      9063      9066      9067      9060      9063      9066      9068
      9060      9063      9066      9069      9061      9060      9063      9064
      9061      9060      9063      9065      9061      9060      9063      9066
      9062      9060      9063      9064      9062      9060      9063      9065
      9062      9060      9063      9066      9064      9063      9066      9067
      9064      9063      9066      9068      9064      9063      9066      9069
      9065      9063      9066      9067      9065      9063      9066      9068
      9065      9063      9066      9069      9070      9072      9075      9076
      9070      9072      9075      9077      9070      9072      9075      9078
      9071      9070      9072      9073      9071      9070      9072      9074
      9071      9070      9072      9075      9072      9075      9078      9079
      9072      9075      9078      9080      9072      9075      9078      9081
      9073      9072      9075      9076      9073      9072      9075      9077
      9073      9072      9075      9078      9074      9072      9075      9076
      9074      9072      9075      9077      9074      9072      9075      9078
      9075      9078      9081      9082      9075      9078      9081      9083
      9075      9078      9081      9084      9076      9075      9078      9079
      9076      9075      9078      9080      9076      9075      9078      9081
      9077      9075      9078      9079      9077      9075      9078      9080
      9077      9075      9078      9081      9078      9081      9084      9085
      9078      9081      9084      9086      9078      9081      9084      9087
      9079      9078      9081      9082      9079      9078      9081      9083
      9079      9078      9081      9084      9080      9078      9081      9082
      9080      9078      9081      9083      9080      9078      9081      9084
      9081      9084      9087      9088      9081      9084      9087      9089
      9081      9084      9087      9090      9082      9081      9084      9085
      9082      9081      9084      9086      9082      9081      9084      9087
      9083      9081      9084      9085      9083      9081      9084      9086
      9083      9081      9084      9087      9084      9087      9090      9091
      9084      9087      9090      9092      9084      9087      9090      9093
      9085      9084      9087      9088      9085      9084      9087      9089
      9085      9084      9087      9090      9086      9084      9087      9088
      9086      9084      9087      9089      9086      9084      9087      9090
      9087      9090      9093      9094      9087      9090      9093      9095
      9088      9087      9090      9091      9088      9087      9090      9092
      9088      9087      9090      9093      9089      9087      9090      9091
      9089      9087      9090      9092      9089      9087      9090      9093
      9090      9093      9095      9096      9090      9093      9095      9097
      9091      9090      9093      9094      9091      9090      9093      9095
      9092      9090      9093      9094      9092      9090      9093      9095
      9093      9095      9097      9098      9093      9095      9097      9099
      9093      9095      9097      9100      9094      9093      9095      9096
      9094      9093      9095      9097      9095      9097      9100      9101
      9095      9097      9100      9102      9095      9097      9100      9103
      9096      9095      9097      9098      9096      9095      9097      9099
      9096      9095      9097      9100      9097      9100      9103      9104
      9097      9100      9103      9105      9097      9100      9103      9106
      9098      9097      9100      9101      9098      9097      9100      9102
      9098      9097      9100      9103      9099      9097      9100      9101
      9099      9097      9100      9102      9099      9097      9100      9103
      9100      9103      9106      9107      9100      9103      9106      9108
      9100      9103      9106      9109      9101      9100      9103      9104
      9101      9100      9103      9105      9101      9100      9103      9106
      9102      9100      9103      9104      9102      9100      9103      9105
      9102      9100      9103      9106      9103      9106      9109      9110
      9103      9106      9109      9111      9103      9106      9109      9112
      9104      9103      9106      9107      9104      9103      9106      9108
      9104      9103      9106      9109      9105      9103      9106      9107
      9105      9103      9106      9108      9105      9103      9106      9109
      9106      9109      9112      9113      9106      9109      9112      9114
      9106      9109      9112      9115      9107      9106      9109      9110
      9107      9106      9109      9111      9107      9106      9109      9112
      9108      9106      9109      9110      9108      9106      9109      9111
      9108      9106      9109      9112      9109      9112      9115      9116
      9109      9112      9115      9117      9109      9112      9115      9118
      9110      9109      9112      9113      9110      9109      9112      9114
      9110      9109      9112      9115      9111      9109      9112      9113
      9111      9109      9112      9114      9111      9109      9112      9115
      9112      9115      9118      9119      9112      9115      9118      9120
      9112      9115      9118      9121      9113      9112      9115      9116
      9113      9112      9115      9117      9113      9112      9115      9118
      9114      9112      9115      9116      9114      9112      9115      9117
      9114      9112      9115      9118      9116      9115      9118      9119
      9116      9115      9118      9120      9116      9115      9118      9121
      9117      9115      9118      9119      9117      9115      9118      9120
      9117      9115      9118      9121      9122      9126      9129      9130
      9122      9126      9129      9160      9122      9168      9165      9160
      9122      9168      9165      9166      9122      9168      9165      9167
      9123      9122      9124      9125      9123      9122      9126      9127
      9123      9122      9126      9128      9123      9122      9126      9129
      9123      9122      9168      9165      9123      9122      9168      9169
      9123      9122      9168      9170      9124      9122      9126      9127
      9124      9122      9126      9128      9124      9122      9126      9129
      9124      9122      9168      9165      9124      9122      9168      9169
      9124      9122      9168      9170      9125      9124      9122      9126
      9125      9124      9122      9168      9126      9122      9168      9165
      9126      9122      9168      9169      9126      9122      9168      9170
      9126      9129      9130      9131      9126      9129      9130      9132
      9126      9129      9160      9158      9126      9129      9160      9161
      9126      9129      9160      9165      9127      9126      9122      9168
      9127      9126      9129      9130      9127      9126      9129      9160
      9128      9126      9122      9168      9128      9126      9129      9130
      9128      9126      9129      9160      9129      9126      9122      9168
      9129      9130      9132      9133      9129      9130      9132      9134
      9129      9130      9132      9135      9129      9160      9158      9135
      9129      9160      9158      9155      9129      9160      9158      9159
      9129      9160      9161      9162      9129      9160      9161      9163
      9129      9160      9161      9164      9129      9160      9165      9166
      9129      9160      9165      9167      9129      9160      9165      9168
      9130      9129      9160      9158      9130      9129      9160      9161
      9130      9129      9160      9165      9130      9132      9135      9136
      9130      9132      9135      9137      9130      9132      9135      9158
      9131      9130      9129      9160      9131      9130      9132      9133
      9131      9130      9132      9134      9131      9130      9132      9135
      9132      9130      9129      9160      9132      9135      9137      9138
      9132      9135      9137      9139      9132      9135      9137      9147
      9132      9135      9158      9155      9132      9135      9158      9159
      9132      9135      9158      9160      9133      9132      9135      9136
      9133      9132      9135      9137      9133      9132      9135      9158
      9134      9132      9135      9136      9134      9132      9135      9137
      9134      9132      9135      9158      9135      9137      9139      9140
      9135      9137      9139      9141      9135      9137      9139      9142
      9135      9137      9147      9145      9135      9137      9147      9148
      9135      9137      9147      9152      9135      9158      9155      9152
      9135      9158      9155      9156      9135      9158      9155      9157
      9135      9158      9160      9161      9135      9158      9160      9165
      9136      9135      9137      9138      9136      9135      9137      9139
      9136      9135      9137      9147      9136      9135      9158      9155
      9136      9135      9158      9159      9136      9135      9158      9160
      9137      9135      9158      9155      9137      9135      9158      9159
      9137      9135      9158      9160      9137      9139      9142      9143
      9137      9139      9142      9144      9137      9139      9142      9145
      9137      9147      9145      9142      9137      9147      9145      9146
      9137      9147      9145      9171      9137      9147      9148      9149
      9137      9147      9148      9150      9137      9147      9148      9151
      9137      9147      9152      9153      9137      9147      9152      9154
      9137      9147      9152      9155      9138      9137      9135      9158
      9138      9137      9139      9140      9138      9137      9139      9141
      9138      9137      9139      9142      9138      9137      9147      9145
      9138      9137      9147      9148      9138      9137      9147      9152
      9139      9137      9135      9158      9139      9137      9147      9145
      9139      9137      9147      9148      9139      9137      9147      9152
      9139      9142      9145      9146      9139      9142      9145      9147
      9139      9142      9145      9171      9140      9139      9137      9147
      9140      9139      9142      9143      9140      9139      9142      9144
      9140      9139      9142      9145      9141      9139      9137      9147
      9141      9139      9142      9143      9141      9139      9142      9144
      9141      9139      9142      9145      9142      9139      9137      9147
      9142      9145      9147      9148      9142      9145      9147      9152
      9142      9145      9171      9172      9142      9145      9171      9173
      9142      9145      9171      9177      9143      9142      9145      9146
      9143      9142      9145      9147      9143      9142      9145      9171
      9144      9142      9145      9146      9144      9142      9145      9147
      9144      9142      9145      9171      9145      9147      9148      9149
      9145      9147      9148      9150      9145      9147      9148      9151
      9145      9147      9152      9153      9145      9147      9152      9154
      9145      9147      9152      9155      9145      9171      9173      9174
      9145      9171      9173      9175      9145      9171      9173      9176
      9145      9171      9177      9178      9145      9171      9177      9179
      9145      9171      9177      9180      9146      9145      9147      9148
      9146      9145      9147      9152      9146      9145      9171      9172
      9146      9145      9171      9173      9146      9145      9171      9177
      9147      9137      9135      9158      9147      9145      9171      9172
      9147      9145      9171      9173      9147      9145      9171      9177
      9147      9152      9155      9156      9147      9152      9155      9157
      9147      9152      9155      9158      9148      9147      9145      9171
      9148      9147      9152      9153      9148      9147      9152      9154
      9148      9147      9152      9155      9149      9148      9147      9152
      9150      9148      9147      9152      9151      9148      9147      9152
      9152      9147      9145      9171      9152      9155      9158      9159
      9152      9155      9158      9160      9153      9152      9155      9156
      9153      9152      9155      9157      9153      9152      9155      9158
      9154      9152      9155      9156      9154      9152      9155      9157
      9154      9152      9155      9158      9155      9158      9160      9161
      9155      9158      9160      9165      9156      9155      9158      9159
      9156      9155      9158      9160      9157      9155      9158      9159
      9157      9155      9158      9160      9158      9160      9161      9162
      9158      9160      9161      9163      9158      9160      9161      9164
      9158      9160      9165      9166      9158      9160      9165      9167
      9158      9160      9165      9168      9159      9158      9160      9161
      9159      9158      9160      9165      9160      9165      9168      9169
      9160      9165      9168      9170      9161      9160      9165      9166
      9161      9160      9165      9167      9161      9160      9165      9168
      9162      9161      9160      9165      9163      9161      9160      9165
      9164      9161      9160      9165      9166      9165      9168      9169
      9166      9165      9168      9170      9167      9165      9168      9169
      9167      9165      9168      9170      9171      9177      9180      9181
      9171      9177      9180      9182      9171      9177      9180      9183
      9172      9171      9173      9174      9172      9171      9173      9175
      9172      9171      9173      9176      9172      9171      9177      9178
      9172      9171      9177      9179      9172      9171      9177      9180
      9173      9171      9177      9178      9173      9171      9177      9179
      9173      9171      9177      9180      9174      9173      9171      9177
      9175      9173      9171      9177      9176      9173      9171      9177
      9177      9180      9183      9184      9177      9180      9183      9185
      9177      9180      9183      9186      9178      9177      9180      9181
      9178      9177      9180      9182      9178      9177      9180      9183
      9179      9177      9180      9181      9179      9177      9180      9182
      9179      9177      9180      9183      9180      9183      9186      9187
      9180      9183      9186      9188      9180      9183      9186      9192
      9181      9180      9183      9184      9181      9180      9183      9185
      9181      9180      9183      9186      9182      9180      9183      9184
      9182      9180      9183      9185      9182      9180      9183      9186
      9183      9186      9188      9189      9183      9186      9188      9190
      9183      9186      9188      9191      9183      9186      9192      9193
      9183      9186      9192      9194      9183      9186      9192      9195
      9184      9183      9186      9187      9184      9183      9186      9188
      9184      9183      9186      9192      9185      9183      9186      9187
      9185      9183      9186      9188      9185      9183      9186      9192
      9187      9186      9188      9189      9187      9186      9188      9190
      9187      9186      9188      9191      9187      9186      9192      9193
      9187      9186      9192      9194      9187      9186      9192      9195
      9188      9186      9192      9193      9188      9186      9192      9194
      9188      9186      9192      9195      9189      9188      9186      9192
      9190      9188      9186      9192      9191      9188      9186      9192
      9196      9200      9203      9204      9196      9200      9203      9205
      9196      9200      9203      9209      9197      9196      9200      9201
      9197      9196      9200      9202      9197      9196      9200      9203
      9198      9196      9200      9201      9198      9196      9200      9202
      9198      9196      9200      9203      9199      9196      9200      9201
      9199      9196      9200      9202      9199      9196      9200      9203
      9200      9203      9209      9206      9201      9200      9203      9204
      9201      9200      9203      9205      9201      9200      9203      9209
      9202      9200      9203      9204      9202      9200      9203      9205
      9202      9200      9203      9209      9203      9209      9206      9207
      9203      9209      9206      9208      9203      9209      9206      9210
      9204      9203      9209      9206      9205      9203      9209      9206
      9206      9210      9211      9212      9206      9210      9211      9213
      9206      9210      9211      9214      9207      9206      9210      9211
      9208      9206      9210      9211      9209      9206      9210      9211
      9210      9211      9214      9215      9210      9211      9214      9216
      9210      9211      9214      9222      9211      9214      9216      9217
      9211      9214      9222      9223      9211      9214      9222      9224
      9211      9214      9222      9225      9212      9211      9214      9215
      9212      9211      9214      9216      9212      9211      9214      9222
      9213      9211      9214      9215      9213      9211      9214      9216
      9213      9211      9214      9222      9214      9216      9217      9218
      9214      9216      9217      9219      9214      9222      9225      9226
      9215      9214      9216      9217      9215      9214      9222      9223
      9215      9214      9222      9224      9215      9214      9222      9225
      9216      9214      9222      9223      9216      9214      9222      9224
      9216      9214      9222      9225      9216      9217      9219      9220
      9216      9217      9219      9221      9216      9217      9219      9231
      9217      9216      9214      9222      9217      9219      9231      9232
      9217      9219      9231      9233      9217      9219      9231      9234
      9218      9217      9219      9220      9218      9217      9219      9221
      9218      9217      9219      9231      9219      9231      9234      9235
      9219      9231      9234      9236      9219      9231      9234      9237
      9220      9219      9231      9232      9220      9219      9231      9233
      9220      9219      9231      9234      9221      9219      9231      9232
      9221      9219      9231      9233      9221      9219      9231      9234
      9222      9225      9226      9227      9222      9225      9226      9228
      9223      9222      9225      9226      9224      9222      9225      9226
      9225      9226      9228      9229      9225      9226      9228      9230
      9225      9226      9228      9278      9226      9228      9278      9279
      9226      9228      9278      9280      9226      9228      9278      9281
      9227      9226      9228      9229      9227      9226      9228      9230
      9227      9226      9228      9278      9228      9278      9281      9282
      9228      9278      9281      9283      9228      9278      9281      9284
      9229      9228      9278      9279      9229      9228      9278      9280
      9229      9228      9278      9281      9230      9228      9278      9279
      9230      9228      9278      9280      9230      9228      9278      9281
      9231      9234      9237      9238      9231      9234      9237      9239
      9232      9231      9234      9235      9232      9231      9234      9236
      9232      9231      9234      9237      9233      9231      9234      9235
      9233      9231      9234      9236      9233      9231      9234      9237
      9234      9237      9239      9240      9234      9237      9239      9241
      9235      9234      9237      9238      9235      9234      9237      9239
      9236      9234      9237      9238      9236      9234      9237      9239
      9237      9239      9241      9242      9237      9239      9241      9243
      9237      9239      9241      9244      9238      9237      9239      9240
      9238      9237      9239      9241      9239      9241      9244      9245
      9239      9241      9244      9246      9240      9239      9241      9242
      9240      9239      9241      9243      9240      9239      9241      9244
      9241      9244      9246      9247      9241      9244      9246      9248
      9242      9241      9244      9245      9242      9241      9244      9246
      9243      9241      9244      9245      9243      9241      9244      9246
      9244      9246      9248      9249      9244      9246      9248      9250
      9244      9246      9248      9251      9245      9244      9246      9247
      9245      9244      9246      9248      9246      9248      9251      9252
      9246      9248      9251      9253      9247      9246      9248      9249
      9247      9246      9248      9250      9247      9246      9248      9251
      9248      9251      9253      9254      9248      9251      9253      9255
      9249      9248      9251      9252      9249      9248      9251      9253
      9250      9248      9251      9252      9250      9248      9251      9253
      9251      9253      9255      9256      9251      9253      9255      9257
      9251      9253      9255      9258      9252      9251      9253      9254
      9252      9251      9253      9255      9253      9255      9258      9259
      9253      9255      9258      9260      9254      9253      9255      9256
      9254      9253      9255      9257      9254      9253      9255      9258
      9255      9258      9260      9261      9255      9258      9260      9262
      9256      9255      9258      9259      9256      9255      9258      9260
      9257      9255      9258      9259      9257      9255      9258      9260
      9258      9260      9262      9263      9258      9260      9262      9264
      9258      9260      9262      9265      9259      9258      9260      9261
      9259      9258      9260      9262      9260      9262      9265      9266
      9260      9262      9265      9267      9260      9262      9265      9268
      9261      9260      9262      9263      9261      9260      9262      9264
      9261      9260      9262      9265      9262      9265      9268      9269
      9262      9265      9268      9270      9262      9265      9268      9271
      9263      9262      9265      9266      9263      9262      9265      9267
      9263      9262      9265      9268      9264      9262      9265      9266
      9264      9262      9265      9267      9264      9262      9265      9268
      9265      9268      9271      9272      9265      9268      9271      9273
      9265      9268      9271      9274      9266      9265      9268      9269
      9266      9265      9268      9270      9266      9265      9268      9271
      9267      9265      9268      9269      9267      9265      9268      9270
      9267      9265      9268      9271      9268      9271      9274      9275
      9268      9271      9274      9276      9268      9271      9274      9277
      9269      9268      9271      9272      9269      9268      9271      9273
      9269      9268      9271      9274      9270      9268      9271      9272
      9270      9268      9271      9273      9270      9268      9271      9274
      9272      9271      9274      9275      9272      9271      9274      9276
      9272      9271      9274      9277      9273      9271      9274      9275
      9273      9271      9274      9276      9273      9271      9274      9277
      9278      9281      9284      9285      9278      9281      9284      9286
      9278      9281      9284      9287      9279      9278      9281      9282
      9279      9278      9281      9283      9279      9278      9281      9284
      9280      9278      9281      9282      9280      9278      9281      9283
      9280      9278      9281      9284      9281      9284      9287      9288
      9281      9284      9287      9289      9281      9284      9287      9290
      9282      9281      9284      9285      9282      9281      9284      9286
      9282      9281      9284      9287      9283      9281      9284      9285
      9283      9281      9284      9286      9283      9281      9284      9287
      9284      9287      9290      9291      9284      9287      9290      9292
      9284      9287      9290      9293      9285      9284      9287      9288
      9285      9284      9287      9289      9285      9284      9287      9290
      9286      9284      9287      9288      9286      9284      9287      9289
      9286      9284      9287      9290      9287      9290      9293      9294
      9287      9290      9293      9295      9287      9290      9293      9296
      9288      9287      9290      9291      9288      9287      9290      9292
      9288      9287      9290      9293      9289      9287      9290      9291
      9289      9287      9290      9292      9289      9287      9290      9293
      9290      9293      9296      9297      9290      9293      9296      9298
      9290      9293      9296      9299      9291      9290      9293      9294
      9291      9290      9293      9295      9291      9290      9293      9296
      9292      9290      9293      9294      9292      9290      9293      9295
      9292      9290      9293      9296      9293      9296      9299      9300
      9293      9296      9299      9301      9293      9296      9299      9302
      9294      9293      9296      9297      9294      9293      9296      9298
      9294      9293      9296      9299      9295      9293      9296      9297
      9295      9293      9296      9298      9295      9293      9296      9299
      9296      9299      9302      9303      9296      9299      9302      9304
      9296      9299      9302      9305      9297      9296      9299      9300
      9297      9296      9299      9301      9297      9296      9299      9302
      9298      9296      9299      9300      9298      9296      9299      9301
      9298      9296      9299      9302      9299      9302      9305      9306
      9299      9302      9305      9307      9299      9302      9305      9308
      9300      9299      9302      9303      9300      9299      9302      9304
      9300      9299      9302      9305      9301      9299      9302      9303
      9301      9299      9302      9304      9301      9299      9302      9305
      9302      9305      9308      9309      9302      9305      9308      9310
      9302      9305      9308      9311      9303      9302      9305      9306
      9303      9302      9305      9307      9303      9302      9305      9308
      9304      9302      9305      9306      9304      9302      9305      9307
      9304      9302      9305      9308      9305      9308      9311      9312
      9305      9308      9311      9313      9305      9308      9311      9314
      9306      9305      9308      9309      9306      9305      9308      9310
      9306      9305      9308      9311      9307      9305      9308      9309
      9307      9305      9308      9310      9307      9305      9308      9311
      9308      9311      9314      9315      9308      9311      9314      9316
      9308      9311      9314      9317      9309      9308      9311      9312
      9309      9308      9311      9313      9309      9308      9311      9314
      9310      9308      9311      9312      9310      9308      9311      9313
      9310      9308      9311      9314      9311      9314      9317      9318
      9311      9314      9317      9319      9311      9314      9317      9320
      9312      9311      9314      9315      9312      9311      9314      9316
      9312      9311      9314      9317      9313      9311      9314      9315
      9313      9311      9314      9316      9313      9311      9314      9317
      9314      9317      9320      9321      9314      9317      9320      9322
      9314      9317      9320      9323      9315      9314      9317      9318
      9315      9314      9317      9319      9315      9314      9317      9320
      9316      9314      9317      9318      9316      9314      9317      9319
      9316      9314      9317      9320      9317      9320      9323      9324
      9317      9320      9323      9325      9317      9320      9323      9326
      9318      9317      9320      9321      9318      9317      9320      9322
      9318      9317      9320      9323      9319      9317      9320      9321
      9319      9317      9320      9322      9319      9317      9320      9323
      9321      9320      9323      9324      9321      9320      9323      9325
      9321      9320      9323      9326      9322      9320      9323      9324
      9322      9320      9323      9325      9322      9320      9323      9326
      9327      9331      9334      9335      9327      9331      9334      9336
      9327      9331      9334      9340      9328      9327      9331      9332
      9328      9327      9331      9333      9328      9327      9331      9334
      9329      9327      9331      9332      9329      9327      9331      9333
      9329      9327      9331      9334      9330      9327      9331      9332
      9330      9327      9331      9333      9330      9327      9331      9334
      9331      9334      9340      9337      9332      9331      9334      9335
      9332      9331      9334      9336      9332      9331      9334      9340
      9333      9331      9334      9335      9333      9331      9334      9336
      9333      9331      9334      9340      9334      9340      9337      9338
      9334      9340      9337      9339      9334      9340      9337      9341
      9335      9334      9340      9337      9336      9334      9340      9337
      9337      9341      9342      9343      9337      9341      9342      9344
      9337      9341      9342      9345      9338      9337      9341      9342
      9339      9337      9341      9342      9340      9337      9341      9342
      9341      9342      9345      9346      9341      9342      9345      9347
      9341      9342      9345      9353      9342      9345      9347      9348
      9342      9345      9353      9354      9342      9345      9353      9355
      9342      9345      9353      9356      9343      9342      9345      9346
      9343      9342      9345      9347      9343      9342      9345      9353
      9344      9342      9345      9346      9344      9342      9345      9347
      9344      9342      9345      9353      9345      9347      9348      9349
      9345      9347      9348      9350      9345      9353      9356      9357
      9346      9345      9347      9348      9346      9345      9353      9354
      9346      9345      9353      9355      9346      9345      9353      9356
      9347      9345      9353      9354      9347      9345      9353      9355
      9347      9345      9353      9356      9347      9348      9350      9351
      9347      9348      9350      9352      9347      9348      9350      9362
      9348      9347      9345      9353      9348      9350      9362      9363
      9348      9350      9362      9364      9348      9350      9362      9365
      9349      9348      9350      9351      9349      9348      9350      9352
      9349      9348      9350      9362      9350      9362      9365      9366
      9350      9362      9365      9367      9350      9362      9365      9368
      9351      9350      9362      9363      9351      9350      9362      9364
      9351      9350      9362      9365      9352      9350      9362      9363
      9352      9350      9362      9364      9352      9350      9362      9365
      9353      9356      9357      9358      9353      9356      9357      9359
      9354      9353      9356      9357      9355      9353      9356      9357
      9356      9357      9359      9360      9356      9357      9359      9361
      9356      9357      9359      9409      9357      9359      9409      9410
      9357      9359      9409      9411      9357      9359      9409      9412
      9358      9357      9359      9360      9358      9357      9359      9361
      9358      9357      9359      9409      9359      9409      9412      9413
      9359      9409      9412      9414      9359      9409      9412      9415
      9360      9359      9409      9410      9360      9359      9409      9411
      9360      9359      9409      9412      9361      9359      9409      9410
      9361      9359      9409      9411      9361      9359      9409      9412
      9362      9365      9368      9369      9362      9365      9368      9370
      9362      9365      9368      9371      9363      9362      9365      9366
      9363      9362      9365      9367      9363      9362      9365      9368
      9364      9362      9365      9366      9364      9362      9365      9367
      9364      9362      9365      9368      9365      9368      9371      9372
      9365      9368      9371      9373      9365      9368      9371      9374
      9366      9365      9368      9369      9366      9365      9368      9370
      9366      9365      9368      9371      9367      9365      9368      9369
      9367      9365      9368      9370      9367      9365      9368      9371
      9368      9371      9374      9375      9368      9371      9374      9376
      9368      9371      9374      9377      9369      9368      9371      9372
      9369      9368      9371      9373      9369      9368      9371      9374
      9370      9368      9371      9372      9370      9368      9371      9373
      9370      9368      9371      9374      9371      9374      9377      9378
      9371      9374      9377      9379      9371      9374      9377      9380
      9372      9371      9374      9375      9372      9371      9374      9376
      9372      9371      9374      9377      9373      9371      9374      9375
      9373      9371      9374      9376      9373      9371      9374      9377
      9374      9377      9380      9381      9374      9377      9380      9382
      9375      9374      9377      9378      9375      9374      9377      9379
      9375      9374      9377      9380      9376      9374      9377      9378
      9376      9374      9377      9379      9376      9374      9377      9380
      9377      9380      9382      9383      9377      9380      9382      9384
      9378      9377      9380      9381      9378      9377      9380      9382
      9379      9377      9380      9381      9379      9377      9380      9382
      9380      9382      9384      9385      9380      9382      9384      9386
      9380      9382      9384      9387      9381      9380      9382      9383
      9381      9380      9382      9384      9382      9384      9387      9388
      9382      9384      9387      9389      9382      9384      9387      9390
      9383      9382      9384      9385      9383      9382      9384      9386
      9383      9382      9384      9387      9384      9387      9390      9391
      9384      9387      9390      9392      9384      9387      9390      9393
      9385      9384      9387      9388      9385      9384      9387      9389
      9385      9384      9387      9390      9386      9384      9387      9388
      9386      9384      9387      9389      9386      9384      9387      9390
      9387      9390      9393      9394      9387      9390      9393      9395
      9387      9390      9393      9396      9388      9387      9390      9391
      9388      9387      9390      9392      9388      9387      9390      9393
      9389      9387      9390      9391      9389      9387      9390      9392
      9389      9387      9390      9393      9390      9393      9396      9397
      9390      9393      9396      9398      9390      9393      9396      9399
      9391      9390      9393      9394      9391      9390      9393      9395
      9391      9390      9393      9396      9392      9390      9393      9394
      9392      9390      9393      9395      9392      9390      9393      9396
      9393      9396      9399      9400      9393      9396      9399      9401
      9393      9396      9399      9402      9394      9393      9396      9397
      9394      9393      9396      9398      9394      9393      9396      9399
      9395      9393      9396      9397      9395      9393      9396      9398
      9395      9393      9396      9399      9396      9399      9402      9403
      9396      9399      9402      9404      9396      9399      9402      9405
      9397      9396      9399      9400      9397      9396      9399      9401
      9397      9396      9399      9402      9398      9396      9399      9400
      9398      9396      9399      9401      9398      9396      9399      9402
      9399      9402      9405      9406      9399      9402      9405      9407
      9399      9402      9405      9408      9400      9399      9402      9403
      9400      9399      9402      9404      9400      9399      9402      9405
      9401      9399      9402      9403      9401      9399      9402      9404
      9401      9399      9402      9405      9403      9402      9405      9406
      9403      9402      9405      9407      9403      9402      9405      9408
      9404      9402      9405      9406      9404      9402      9405      9407
      9404      9402      9405      9408      9409      9412      9415      9416
      9409      9412      9415      9417      9409      9412      9415      9418
      9410      9409      9412      9413      9410      9409      9412      9414
      9410      9409      9412      9415      9411      9409      9412      9413
      9411      9409      9412      9414      9411      9409      9412      9415
      9412      9415      9418      9419      9412      9415      9418      9420
      9412      9415      9418      9421      9413      9412      9415      9416
      9413      9412      9415      9417      9413      9412      9415      9418
      9414      9412      9415      9416      9414      9412      9415      9417
      9414      9412      9415      9418      9415      9418      9421      9422
      9415      9418      9421      9423      9415      9418      9421      9424
      9416      9415      9418      9419      9416      9415      9418      9420
      9416      9415      9418      9421      9417      9415      9418      9419
      9417      9415      9418      9420      9417      9415      9418      9421
      9418      9421      9424      9425      9418      9421      9424      9426
      9418      9421      9424      9427      9419      9418      9421      9422
      9419      9418      9421      9423      9419      9418      9421      9424
      9420      9418      9421      9422      9420      9418      9421      9423
      9420      9418      9421      9424      9421      9424      9427      9428
      9421      9424      9427      9429      9421      9424      9427      9430
      9422      9421      9424      9425      9422      9421      9424      9426
      9422      9421      9424      9427      9423      9421      9424      9425
      9423      9421      9424      9426      9423      9421      9424      9427
      9424      9427      9430      9431      9424      9427      9430      9432
      9424      9427      9430      9433      9425      9424      9427      9428
      9425      9424      9427      9429      9425      9424      9427      9430
      9426      9424      9427      9428      9426      9424      9427      9429
      9426      9424      9427      9430      9427      9430      9433      9434
      9427      9430      9433      9435      9427      9430      9433      9436
      9428      9427      9430      9431      9428      9427      9430      9432
      9428      9427      9430      9433      9429      9427      9430      9431
      9429      9427      9430      9432      9429      9427      9430      9433
      9430      9433      9436      9437      9430      9433      9436      9438
      9430      9433      9436      9439      9431      9430      9433      9434
      9431      9430      9433      9435      9431      9430      9433      9436
      9432      9430      9433      9434      9432      9430      9433      9435
      9432      9430      9433      9436      9433      9436      9439      9440
      9433      9436      9439      9441      9433      9436      9439      9442
      9434      9433      9436      9437      9434      9433      9436      9438
      9434      9433      9436      9439      9435      9433      9436      9437
      9435      9433      9436      9438      9435      9433      9436      9439
      9436      9439      9442      9443      9436      9439      9442      9444
      9436      9439      9442      9445      9437      9436      9439      9440
      9437      9436      9439      9441      9437      9436      9439      9442
      9438      9436      9439      9440      9438      9436      9439      9441
      9438      9436      9439      9442      9439      9442      9445      9446
      9439      9442      9445      9447      9439      9442      9445      9448
      9440      9439      9442      9443      9440      9439      9442      9444
      9440      9439      9442      9445      9441      9439      9442      9443
      9441      9439      9442      9444      9441      9439      9442      9445
      9442      9445      9448      9449      9442      9445      9448      9450
      9442      9445      9448      9451      9443      9442      9445      9446
      9443      9442      9445      9447      9443      9442      9445      9448
      9444      9442      9445      9446      9444      9442      9445      9447
      9444      9442      9445      9448      9445      9448      9451      9452
      9445      9448      9451      9453      9445      9448      9451      9454
      9446      9445      9448      9449      9446      9445      9448      9450
      9446      9445      9448      9451      9447      9445      9448      9449
      9447      9445      9448      9450      9447      9445      9448      9451
      9448      9451      9454      9455      9448      9451      9454      9456
      9448      9451      9454      9457      9449      9448      9451      9452
      9449      9448      9451      9453      9449      9448      9451      9454
      9450      9448      9451      9452      9450      9448      9451      9453
      9450      9448      9451      9454      9452      9451      9454      9455
      9452      9451      9454      9456      9452      9451      9454      9457
      9453      9451      9454      9455      9453      9451      9454      9456
      9453      9451      9454      9457      9458      9459      9474      9475
      9458      9459      9474      9476      9458      9459      9474      9480
      9459      9458      9462      9463      9459      9458      9462      9464
      9459      9458      9462      9465      9459      9458      9466      9467
      9459      9458      9466      9468      9459      9458      9466      9469
      9459      9458      9470      9471      9459      9458      9470      9472
      9459      9458      9470      9473      9459      9474      9480      9477
      9460      9459      9458      9462      9460      9459      9458      9466
      9460      9459      9458      9470      9460      9459      9474      9475
      9460      9459      9474      9476      9460      9459      9474      9480
      9461      9459      9458      9462      9461      9459      9458      9466
      9461      9459      9458      9470      9461      9459      9474      9475
      9461      9459      9474      9476      9461      9459      9474      9480
      9462      9458      9459      9474      9462      9458      9466      9467
      9462      9458      9466      9468      9462      9458      9466      9469
      9462      9458      9470      9471      9462      9458      9470      9472
      9462      9458      9470      9473      9463      9462      9458      9466
      9463      9462      9458      9470      9464      9462      9458      9466
      9464      9462      9458      9470      9465      9462      9458      9466
      9465      9462      9458      9470      9466      9458      9459      9474
      9466      9458      9470      9471      9466      9458      9470      9472
      9466      9458      9470      9473      9467      9466      9458      9470
      9468      9466      9458      9470      9469      9466      9458      9470
      9470      9458      9459      9474      9474      9480      9477      9478
      9474      9480      9477      9479      9474      9480      9477      9481
      9475      9474      9480      9477      9476      9474      9480      9477
      9477      9481      9482      9483      9477      9481      9482      9484
      9477      9481      9482      9485      9478      9477      9481      9482
      9479      9477      9481      9482      9480      9477      9481      9482
      9481      9482      9485      9486      9481      9482      9485      9487
      9481      9482      9485      9493      9482      9485      9487      9488
      9482      9485      9493      9494      9482      9485      9493      9495
      9482      9485      9493      9496      9483      9482      9485      9486
      9483      9482      9485      9487      9483      9482      9485      9493
      9484      9482      9485      9486      9484      9482      9485      9487
      9484      9482      9485      9493      9485      9487      9488      9489
      9485      9487      9488      9490      9485      9493      9496      9497
      9486      9485      9487      9488      9486      9485      9493      9494
      9486      9485      9493      9495      9486      9485      9493      9496
      9487      9485      9493      9494      9487      9485      9493      9495
      9487      9485      9493      9496      9487      9488      9490      9491
      9487      9488      9490      9492      9487      9488      9490      9502
      9488      9487      9485      9493      9488      9490      9502      9503
      9488      9490      9502      9504      9488      9490      9502      9505
      9489      9488      9490      9491      9489      9488      9490      9492
      9489      9488      9490      9502      9490      9502      9505      9506
      9490      9502      9505      9507      9490      9502      9505      9508
      9491      9490      9502      9503      9491      9490      9502      9504
      9491      9490      9502      9505      9492      9490      9502      9503
      9492      9490      9502      9504      9492      9490      9502      9505
      9493      9496      9497      9498      9493      9496      9497      9499
      9494      9493      9496      9497      9495      9493      9496      9497
      9496      9497      9499      9500      9496      9497      9499      9501
      9496      9497      9499      9549      9497      9499      9549      9550
      9497      9499      9549      9551      9497      9499      9549      9552
      9498      9497      9499      9500      9498      9497      9499      9501
      9498      9497      9499      9549      9499      9549      9552      9553
      9499      9549      9552      9554      9499      9549      9552      9555
      9500      9499      9549      9550      9500      9499      9549      9551
      9500      9499      9549      9552      9501      9499      9549      9550
      9501      9499      9549      9551      9501      9499      9549      9552
      9502      9505      9508      9509      9502      9505      9508      9510
      9502      9505      9508      9511      9503      9502      9505      9506
      9503      9502      9505      9507      9503      9502      9505      9508
      9504      9502      9505      9506      9504      9502      9505      9507
      9504      9502      9505      9508      9505      9508      9511      9512
      9505      9508      9511      9513      9505      9508      9511      9514
      9506      9505      9508      9509      9506      9505      9508      9510
      9506      9505      9508      9511      9507      9505      9508      9509
      9507      9505      9508      9510      9507      9505      9508      9511
      9508      9511      9514      9515      9508      9511      9514      9516
      9508      9511      9514      9517      9509      9508      9511      9512
      9509      9508      9511      9513      9509      9508      9511      9514
      9510      9508      9511      9512      9510      9508      9511      9513
      9510      9508      9511      9514      9511      9514      9517      9518
      9511      9514      9517      9519      9511      9514      9517      9520
      9512      9511      9514      9515      9512      9511      9514      9516
      9512      9511      9514      9517      9513      9511      9514      9515
      9513      9511      9514      9516      9513      9511      9514      9517
      9514      9517      9520      9521      9514      9517      9520      9522
      9515      9514      9517      9518      9515      9514      9517      9519
      9515      9514      9517      9520      9516      9514      9517      9518
      9516      9514      9517      9519      9516      9514      9517      9520
      9517      9520      9522      9523      9517      9520      9522      9524
      9518      9517      9520      9521      9518      9517      9520      9522
      9519      9517      9520      9521      9519      9517      9520      9522
      9520      9522      9524      9525      9520      9522      9524      9526
      9520      9522      9524      9527      9521      9520      9522      9523
      9521      9520      9522      9524      9522      9524      9527      9528
      9522      9524      9527      9529      9522      9524      9527      9530
      9523      9522      9524      9525      9523      9522      9524      9526
      9523      9522      9524      9527      9524      9527      9530      9531
      9524      9527      9530      9532      9524      9527      9530      9533
      9525      9524      9527      9528      9525      9524      9527      9529
      9525      9524      9527      9530      9526      9524      9527      9528
      9526      9524      9527      9529      9526      9524      9527      9530
      9527      9530      9533      9534      9527      9530      9533      9535
      9527      9530      9533      9536      9528      9527      9530      9531
      9528      9527      9530      9532      9528      9527      9530      9533
      9529      9527      9530      9531      9529      9527      9530      9532
      9529      9527      9530      9533      9530      9533      9536      9537
      9530      9533      9536      9538      9530      9533      9536      9539
      9531      9530      9533      9534      9531      9530      9533      9535
      9531      9530      9533      9536      9532      9530      9533      9534
      9532      9530      9533      9535      9532      9530      9533      9536
      9533      9536      9539      9540      9533      9536      9539      9541
      9533      9536      9539      9542      9534      9533      9536      9537
      9534      9533      9536      9538      9534      9533      9536      9539
      9535      9533      9536      9537      9535      9533      9536      9538
      9535      9533      9536      9539      9536      9539      9542      9543
      9536      9539      9542      9544      9536      9539      9542      9545
      9537      9536      9539      9540      9537      9536      9539      9541
      9537      9536      9539      9542      9538      9536      9539      9540
      9538      9536      9539      9541      9538      9536      9539      9542
      9539      9542      9545      9546      9539      9542      9545      9547
      9539      9542      9545      9548      9540      9539      9542      9543
      9540      9539      9542      9544      9540      9539      9542      9545
      9541      9539      9542      9543      9541      9539      9542      9544
      9541      9539      9542      9545      9543      9542      9545      9546
      9543      9542      9545      9547      9543      9542      9545      9548
      9544      9542      9545      9546      9544      9542      9545      9547
      9544      9542      9545      9548      9549      9552      9555      9556
      9549      9552      9555      9557      9549      9552      9555      9558
      9550      9549      9552      9553      9550      9549      9552      9554
      9550      9549      9552      9555      9551      9549      9552      9553
      9551      9549      9552      9554      9551      9549      9552      9555
      9552      9555      9558      9559      9552      9555      9558      9560
      9552      9555      9558      9561      9553      9552      9555      9556
      9553      9552      9555      9557      9553      9552      9555      9558
      9554      9552      9555      9556      9554      9552      9555      9557
      9554      9552      9555      9558      9555      9558      9561      9562
      9555      9558      9561      9563      9555      9558      9561      9564
      9556      9555      9558      9559      9556      9555      9558      9560
      9556      9555      9558      9561      9557      9555      9558      9559
      9557      9555      9558      9560      9557      9555      9558      9561
      9558      9561      9564      9565      9558      9561      9564      9566
      9558      9561      9564      9567      9559      9558      9561      9562
      9559      9558      9561      9563      9559      9558      9561      9564
      9560      9558      9561      9562      9560      9558      9561      9563
      9560      9558      9561      9564      9561      9564      9567      9568
      9561      9564      9567      9569      9561      9564      9567      9570
      9562      9561      9564      9565      9562      9561      9564      9566
      9562      9561      9564      9567      9563      9561      9564      9565
      9563      9561      9564      9566      9563      9561      9564      9567
      9564      9567      9570      9571      9564      9567      9570      9572
      9564      9567      9570      9573      9565      9564      9567      9568
      9565      9564      9567      9569      9565      9564      9567      9570
      9566      9564      9567      9568      9566      9564      9567      9569
      9566      9564      9567      9570      9567      9570      9573      9574
      9567      9570      9573      9575      9567      9570      9573      9576
      9568      9567      9570      9571      9568      9567      9570      9572
      9568      9567      9570      9573      9569      9567      9570      9571
      9569      9567      9570      9572      9569      9567      9570      9573
      9570      9573      9576      9577      9570      9573      9576      9578
      9570      9573      9576      9579      9571      9570      9573      9574
      9571      9570      9573      9575      9571      9570      9573      9576
      9572      9570      9573      9574      9572      9570      9573      9575
      9572      9570      9573      9576      9573      9576      9579      9580
      9573      9576      9579      9581      9573      9576      9579      9582
      9574      9573      9576      9577      9574      9573      9576      9578
      9574      9573      9576      9579      9575      9573      9576      9577
      9575      9573      9576      9578      9575      9573      9576      9579
      9576      9579      9582      9583      9576      9579      9582      9584
      9576      9579      9582      9585      9577      9576      9579      9580
      9577      9576      9579      9581      9577      9576      9579      9582
      9578      9576      9579      9580      9578      9576      9579      9581
      9578      9576      9579      9582      9579      9582      9585      9586
      9579      9582      9585      9587      9579      9582      9585      9588
      9580      9579      9582      9583      9580      9579      9582      9584
      9580      9579      9582      9585      9581      9579      9582      9583
      9581      9579      9582      9584      9581      9579      9582      9585
      9582      9585      9588      9589      9582      9585      9588      9590
      9582      9585      9588      9591      9583      9582      9585      9586
      9583      9582      9585      9587      9583      9582      9585      9588
      9584      9582      9585      9586      9584      9582      9585      9587
      9584      9582      9585      9588      9586      9585      9588      9589
      9586      9585      9588      9590      9586      9585      9588      9591
      9587      9585      9588      9589      9587      9585      9588      9590
      9587      9585      9588      9591      9592      9596      9599      9600
      9592      9596      9599      9601      9592      9596      9599      9605
      9593      9592      9596      9597      9593      9592      9596      9598
      9593      9592      9596      9599      9594      9592      9596      9597
      9594      9592      9596      9598      9594      9592      9596      9599
      9595      9592      9596      9597      9595      9592      9596      9598
      9595      9592      9596      9599      9596      9599      9605      9602
      9597      9596      9599      9600      9597      9596      9599      9601
      9597      9596      9599      9605      9598      9596      9599      9600
      9598      9596      9599      9601      9598      9596      9599      9605
      9599      9605      9602      9603      9599      9605      9602      9604
      9599      9605      9602      9606      9600      9599      9605      9602
      9601      9599      9605      9602      9602      9606      9607      9608
      9602      9606      9607      9609      9602      9606      9607      9610
      9603      9602      9606      9607      9604      9602      9606      9607
      9605      9602      9606      9607      9606      9607      9610      9611
      9606      9607      9610      9612      9606      9607      9610      9618
      9607      9610      9612      9613      9607      9610      9618      9619
      9607      9610      9618      9620      9607      9610      9618      9621
      9608      9607      9610      9611      9608      9607      9610      9612
      9608      9607      9610      9618      9609      9607      9610      9611
      9609      9607      9610      9612      9609      9607      9610      9618
      9610      9612      9613      9614      9610      9612      9613      9615
      9610      9618      9621      9622      9611      9610      9612      9613
      9611      9610      9618      9619      9611      9610      9618      9620
      9611      9610      9618      9621      9612      9610      9618      9619
      9612      9610      9618      9620      9612      9610      9618      9621
      9612      9613      9615      9616      9612      9613      9615      9617
      9612      9613      9615      9627      9613      9612      9610      9618
      9613      9615      9627      9628      9613      9615      9627      9629
      9613      9615      9627      9630      9614      9613      9615      9616
      9614      9613      9615      9617      9614      9613      9615      9627
      9615      9627      9630      9631      9615      9627      9630      9632
      9615      9627      9630      9633      9616      9615      9627      9628
      9616      9615      9627      9629      9616      9615      9627      9630
      9617      9615      9627      9628      9617      9615      9627      9629
      9617      9615      9627      9630      9618      9621      9622      9623
      9618      9621      9622      9624      9619      9618      9621      9622
      9620      9618      9621      9622      9621      9622      9624      9625
      9621      9622      9624      9626      9621      9622      9624      9674
      9622      9624      9674      9675      9622      9624      9674      9676
      9622      9624      9674      9677      9623      9622      9624      9625
      9623      9622      9624      9626      9623      9622      9624      9674
      9624      9674      9677      9678      9624      9674      9677      9679
      9624      9674      9677      9680      9625      9624      9674      9675
      9625      9624      9674      9676      9625      9624      9674      9677
      9626      9624      9674      9675      9626      9624      9674      9676
      9626      9624      9674      9677      9627      9630      9633      9634
      9627      9630      9633      9635      9627      9630      9633      9636
      9628      9627      9630      9631      9628      9627      9630      9632
      9628      9627      9630      9633      9629      9627      9630      9631
      9629      9627      9630      9632      9629      9627      9630      9633
      9630      9633      9636      9637      9630      9633      9636      9638
      9630      9633      9636      9639      9631      9630      9633      9634
      9631      9630      9633      9635      9631      9630      9633      9636
      9632      9630      9633      9634      9632      9630      9633      9635
      9632      9630      9633      9636      9633      9636      9639      9640
      9633      9636      9639      9641      9633      9636      9639      9642
      9634      9633      9636      9637      9634      9633      9636      9638
      9634      9633      9636      9639      9635      9633      9636      9637
      9635      9633      9636      9638      9635      9633      9636      9639
      9636      9639      9642      9643      9636      9639      9642      9644
      9636      9639      9642      9645      9637      9636      9639      9640
      9637      9636      9639      9641      9637      9636      9639      9642
      9638      9636      9639      9640      9638      9636      9639      9641
      9638      9636      9639      9642      9639      9642      9645      9646
      9639      9642      9645      9647      9640      9639      9642      9643
      9640      9639      9642      9644      9640      9639      9642      9645
      9641      9639      9642      9643      9641      9639      9642      9644
      9641      9639      9642      9645      9642      9645      9647      9648
      9642      9645      9647      9649      9643      9642      9645      9646
      9643      9642      9645      9647      9644      9642      9645      9646
      9644      9642      9645      9647      9645      9647      9649      9650
      9645      9647      9649      9651      9645      9647      9649      9652
      9646      9645      9647      9648      9646      9645      9647      9649
      9647      9649      9652      9653      9647      9649      9652      9654
      9647      9649      9652      9655      9648      9647      9649      9650
      9648      9647      9649      9651      9648      9647      9649      9652
      9649      9652      9655      9656      9649      9652      9655      9657
      9649      9652      9655      9658      9650      9649      9652      9653
      9650      9649      9652      9654      9650      9649      9652      9655
      9651      9649      9652      9653      9651      9649      9652      9654
      9651      9649      9652      9655      9652      9655      9658      9659
      9652      9655      9658      9660      9652      9655      9658      9661
      9653      9652      9655      9656      9653      9652      9655      9657
      9653      9652      9655      9658      9654      9652      9655      9656
      9654      9652      9655      9657      9654      9652      9655      9658
      9655      9658      9661      9662      9655      9658      9661      9663
      9655      9658      9661      9664      9656      9655      9658      9659
      9656      9655      9658      9660      9656      9655      9658      9661
      9657      9655      9658      9659      9657      9655      9658      9660
      9657      9655      9658      9661      9658      9661      9664      9665
      9658      9661      9664      9666      9658      9661      9664      9667
      9659      9658      9661      9662      9659      9658      9661      9663
      9659      9658      9661      9664      9660      9658      9661      9662
      9660      9658      9661      9663      9660      9658      9661      9664
      9661      9664      9667      9668      9661      9664      9667      9669
      9661      9664      9667      9670      9662      9661      9664      9665
      9662      9661      9664      9666      9662      9661      9664      9667
      9663      9661      9664      9665      9663      9661      9664      9666
      9663      9661      9664      9667      9664      9667      9670      9671
      9664      9667      9670      9672      9664      9667      9670      9673
      9665      9664      9667      9668      9665      9664      9667      9669
      9665      9664      9667      9670      9666      9664      9667      9668
      9666      9664      9667      9669      9666      9664      9667      9670
      9668      9667      9670      9671      9668      9667      9670      9672
      9668      9667      9670      9673      9669      9667      9670      9671
      9669      9667      9670      9672      9669      9667      9670      9673
      9674      9677      9680      9681      9674      9677      9680      9682
      9674      9677      9680      9683      9675      9674      9677      9678
      9675      9674      9677      9679      9675      9674      9677      9680
      9676      9674      9677      9678      9676      9674      9677      9679
      9676      9674      9677      9680      9677      9680      9683      9684
      9677      9680      9683      9685      9677      9680      9683      9686
      9678      9677      9680      9681      9678      9677      9680      9682
      9678      9677      9680      9683      9679      9677      9680      9681
      9679      9677      9680      9682      9679      9677      9680      9683
      9680      9683      9686      9687      9680      9683      9686      9688
      9680      9683      9686      9689      9681      9680      9683      9684
      9681      9680      9683      9685      9681      9680      9683      9686
      9682      9680      9683      9684      9682      9680      9683      9685
      9682      9680      9683      9686      9683      9686      9689      9690
      9683      9686      9689      9691      9683      9686      9689      9692
      9684      9683      9686      9687      9684      9683      9686      9688
      9684      9683      9686      9689      9685      9683      9686      9687
      9685      9683      9686      9688      9685      9683      9686      9689
      9686      9689      9692      9693      9686      9689      9692      9694
      9686      9689      9692      9695      9687      9686      9689      9690
      9687      9686      9689      9691      9687      9686      9689      9692
      9688      9686      9689      9690      9688      9686      9689      9691
      9688      9686      9689      9692      9689      9692      9695      9696
      9689      9692      9695      9697      9689      9692      9695      9698
      9690      9689      9692      9693      9690      9689      9692      9694
      9690      9689      9692      9695      9691      9689      9692      9693
      9691      9689      9692      9694      9691      9689      9692      9695
      9692      9695      9698      9699      9692      9695      9698      9700
      9692      9695      9698      9701      9693      9692      9695      9696
      9693      9692      9695      9697      9693      9692      9695      9698
      9694      9692      9695      9696      9694      9692      9695      9697
      9694      9692      9695      9698      9695      9698      9701      9702
      9695      9698      9701      9703      9695      9698      9701      9704
      9696      9695      9698      9699      9696      9695      9698      9700
      9696      9695      9698      9701      9697      9695      9698      9699
      9697      9695      9698      9700      9697      9695      9698      9701
      9698      9701      9704      9705      9698      9701      9704      9706
      9698      9701      9704      9707      9699      9698      9701      9702
      9699      9698      9701      9703      9699      9698      9701      9704
      9700      9698      9701      9702      9700      9698      9701      9703
      9700      9698      9701      9704      9701      9704      9707      9708
      9701      9704      9707      9709      9701      9704      9707      9710
      9702      9701      9704      9705      9702      9701      9704      9706
      9702      9701      9704      9707      9703      9701      9704      9705
      9703      9701      9704      9706      9703      9701      9704      9707
      9704      9707      9710      9711      9704      9707      9710      9712
      9704      9707      9710      9713      9705      9704      9707      9708
      9705      9704      9707      9709      9705      9704      9707      9710
      9706      9704      9707      9708      9706      9704      9707      9709
      9706      9704      9707      9710      9707      9710      9713      9714
      9707      9710      9713      9715      9707      9710      9713      9716
      9708      9707      9710      9711      9708      9707      9710      9712
      9708      9707      9710      9713      9709      9707      9710      9711
      9709      9707      9710      9712      9709      9707      9710      9713
      9710      9713      9716      9717      9710      9713      9716      9718
      9710      9713      9716      9719      9711      9710      9713      9714
      9711      9710      9713      9715      9711      9710      9713      9716
      9712      9710      9713      9714      9712      9710      9713      9715
      9712      9710      9713      9716      9713      9716      9719      9720
      9713      9716      9719      9721      9713      9716      9719      9722
      9714      9713      9716      9717      9714      9713      9716      9718
      9714      9713      9716      9719      9715      9713      9716      9717
      9715      9713      9716      9718      9715      9713      9716      9719
      9717      9716      9719      9720      9717      9716      9719      9721
      9717      9716      9719      9722      9718      9716      9719      9720
      9718      9716      9719      9721      9718      9716      9719      9722
      9723      9724      9739      9740      9723      9724      9739      9741
      9723      9724      9739      9745      9724      9723      9727      9728
      9724      9723      9727      9729      9724      9723      9727      9730
      9724      9723      9731      9732      9724      9723      9731      9733
      9724      9723      9731      9734      9724      9723      9735      9736
      9724      9723      9735      9737      9724      9723      9735      9738
      9724      9739      9745      9742      9725      9724      9723      9727
      9725      9724      9723      9731      9725      9724      9723      9735
      9725      9724      9739      9740      9725      9724      9739      9741
      9725      9724      9739      9745      9726      9724      9723      9727
      9726      9724      9723      9731      9726      9724      9723      9735
      9726      9724      9739      9740      9726      9724      9739      9741
      9726      9724      9739      9745      9727      9723      9724      9739
      9727      9723      9731      9732      9727      9723      9731      9733
      9727      9723      9731      9734      9727      9723      9735      9736
      9727      9723      9735      9737      9727      9723      9735      9738
      9728      9727      9723      9731      9728      9727      9723      9735
      9729      9727      9723      9731      9729      9727      9723      9735
      9730      9727      9723      9731      9730      9727      9723      9735
      9731      9723      9724      9739      9731      9723      9735      9736
      9731      9723      9735      9737      9731      9723      9735      9738
      9732      9731      9723      9735      9733      9731      9723      9735
      9734      9731      9723      9735      9735      9723      9724      9739
      9739      9745      9742      9743      9739      9745      9742      9744
      9739      9745      9742      9746      9740      9739      9745      9742
      9741      9739      9745      9742      9742      9746      9747      9748
      9742      9746      9747      9749      9742      9746      9747      9750
      9743      9742      9746      9747      9744      9742      9746      9747
      9745      9742      9746      9747      9746      9747      9750      9751
      9746      9747      9750      9752      9746      9747      9750      9758
      9747      9750      9752      9753      9747      9750      9758      9759
      9747      9750      9758      9760      9747      9750      9758      9761
      9748      9747      9750      9751      9748      9747      9750      9752
      9748      9747      9750      9758      9749      9747      9750      9751
      9749      9747      9750      9752      9749      9747      9750      9758
      9750      9752      9753      9754      9750      9752      9753      9755
      9750      9758      9761      9762      9751      9750      9752      9753
      9751      9750      9758      9759      9751      9750      9758      9760
      9751      9750      9758      9761      9752      9750      9758      9759
      9752      9750      9758      9760      9752      9750      9758      9761
      9752      9753      9755      9756      9752      9753      9755      9757
      9752      9753      9755      9767      9753      9752      9750      9758
      9753      9755      9767      9768      9753      9755      9767      9769
      9753      9755      9767      9770      9754      9753      9755      9756
      9754      9753      9755      9757      9754      9753      9755      9767
      9755      9767      9770      9771      9755      9767      9770      9772
      9755      9767      9770      9773      9756      9755      9767      9768
      9756      9755      9767      9769      9756      9755      9767      9770
      9757      9755      9767      9768      9757      9755      9767      9769
      9757      9755      9767      9770      9758      9761      9762      9763
      9758      9761      9762      9764      9759      9758      9761      9762
      9760      9758      9761      9762      9761      9762      9764      9765
      9761      9762      9764      9766      9761      9762      9764      9814
      9762      9764      9814      9815      9762      9764      9814      9816
      9762      9764      9814      9817      9763      9762      9764      9765
      9763      9762      9764      9766      9763      9762      9764      9814
      9764      9814      9817      9818      9764      9814      9817      9819
      9764      9814      9817      9820      9765      9764      9814      9815
      9765      9764      9814      9816      9765      9764      9814      9817
      9766      9764      9814      9815      9766      9764      9814      9816
      9766      9764      9814      9817      9767      9770      9773      9774
      9767      9770      9773      9775      9768      9767      9770      9771
      9768      9767      9770      9772      9768      9767      9770      9773
      9769      9767      9770      9771      9769      9767      9770      9772
      9769      9767      9770      9773      9770      9773      9775      9776
      9770      9773      9775      9777      9771      9770      9773      9774
      9771      9770      9773      9775      9772      9770      9773      9774
      9772      9770      9773      9775      9773      9775      9777      9778
      9773      9775      9777      9779      9773      9775      9777      9780
      9774      9773      9775      9776      9774      9773      9775      9777
      9775      9777      9780      9781      9775      9777      9780      9782
      9776      9775      9777      9778      9776      9775      9777      9779
      9776      9775      9777      9780      9777      9780      9782      9783
      9777      9780      9782      9784      9778      9777      9780      9781
      9778      9777      9780      9782      9779      9777      9780      9781
      9779      9777      9780      9782      9780      9782      9784      9785
      9780      9782      9784      9786      9780      9782      9784      9787
      9781      9780      9782      9783      9781      9780      9782      9784
      9782      9784      9787      9788      9782      9784      9787      9789
      9783      9782      9784      9785      9783      9782      9784      9786
      9783      9782      9784      9787      9784      9787      9789      9790
      9784      9787      9789      9791      9785      9784      9787      9788
      9785      9784      9787      9789      9786      9784      9787      9788
      9786      9784      9787      9789      9787      9789      9791      9792
      9787      9789      9791      9793      9787      9789      9791      9794
      9788      9787      9789      9790      9788      9787      9789      9791
      9789      9791      9794      9795      9789      9791      9794      9796
      9790      9789      9791      9792      9790      9789      9791      9793
      9790      9789      9791      9794      9791      9794      9796      9797
      9791      9794      9796      9798      9792      9791      9794      9795
      9792      9791      9794      9796      9793      9791      9794      9795
      9793      9791      9794      9796      9794      9796      9798      9799
      9794      9796      9798      9800      9794      9796      9798      9801
      9795      9794      9796      9797      9795      9794      9796      9798
      9796      9798      9801      9802      9796      9798      9801      9803
      9796      9798      9801      9804      9797      9796      9798      9799
      9797      9796      9798      9800      9797      9796      9798      9801
      9798      9801      9804      9805      9798      9801      9804      9806
      9798      9801      9804      9807      9799      9798      9801      9802
      9799      9798      9801      9803      9799      9798      9801      9804
      9800      9798      9801      9802      9800      9798      9801      9803
      9800      9798      9801      9804      9801      9804      9807      9808
      9801      9804      9807      9809      9801      9804      9807      9810
      9802      9801      9804      9805      9802      9801      9804      9806
      9802      9801      9804      9807      9803      9801      9804      9805
      9803      9801      9804      9806      9803      9801      9804      9807
      9804      9807      9810      9811      9804      9807      9810      9812
      9804      9807      9810      9813      9805      9804      9807      9808
      9805      9804      9807      9809      9805      9804      9807      9810
      9806      9804      9807      9808      9806      9804      9807      9809
      9806      9804      9807      9810      9808      9807      9810      9811
      9808      9807      9810      9812      9808      9807      9810      9813
      9809      9807      9810      9811      9809      9807      9810      9812
      9809      9807      9810      9813      9814      9817      9820      9821
      9814      9817      9820      9822      9814      9817      9820      9823
      9815      9814      9817      9818      9815      9814      9817      9819
      9815      9814      9817      9820      9816      9814      9817      9818
      9816      9814      9817      9819      9816      9814      9817      9820
      9817      9820      9823      9824      9817      9820      9823      9825
      9817      9820      9823      9826      9818      9817      9820      9821
      9818      9817      9820      9822      9818      9817      9820      9823
      9819      9817      9820      9821      9819      9817      9820      9822
      9819      9817      9820      9823      9820      9823      9826      9827
      9820      9823      9826      9828      9820      9823      9826      9829
      9821      9820      9823      9824      9821      9820      9823      9825
      9821      9820      9823      9826      9822      9820      9823      9824
      9822      9820      9823      9825      9822      9820      9823      9826
      9823      9826      9829      9830      9823      9826      9829      9831
      9823      9826      9829      9832      9824      9823      9826      9827
      9824      9823      9826      9828      9824      9823      9826      9829
      9825      9823      9826      9827      9825      9823      9826      9828
      9825      9823      9826      9829      9826      9829      9832      9833
      9826      9829      9832      9834      9826      9829      9832      9835
      9827      9826      9829      9830      9827      9826      9829      9831
      9827      9826      9829      9832      9828      9826      9829      9830
      9828      9826      9829      9831      9828      9826      9829      9832
      9829      9832      9835      9836      9829      9832      9835      9837
      9829      9832      9835      9838      9830      9829      9832      9833
      9830      9829      9832      9834      9830      9829      9832      9835
      9831      9829      9832      9833      9831      9829      9832      9834
      9831      9829      9832      9835      9832      9835      9838      9839
      9832      9835      9838      9840      9832      9835      9838      9841
      9833      9832      9835      9836      9833      9832      9835      9837
      9833      9832      9835      9838      9834      9832      9835      9836
      9834      9832      9835      9837      9834      9832      9835      9838
      9835      9838      9841      9842      9835      9838      9841      9843
      9835      9838      9841      9844      9836      9835      9838      9839
      9836      9835      9838      9840      9836      9835      9838      9841
      9837      9835      9838      9839      9837      9835      9838      9840
      9837      9835      9838      9841      9838      9841      9844      9845
      9838      9841      9844      9846      9838      9841      9844      9847
      9839      9838      9841      9842      9839      9838      9841      9843
      9839      9838      9841      9844      9840      9838      9841      9842
      9840      9838      9841      9843      9840      9838      9841      9844
      9841      9844      9847      9848      9841      9844      9847      9849
      9841      9844      9847      9850      9842      9841      9844      9845
      9842      9841      9844      9846      9842      9841      9844      9847
      9843      9841      9844      9845      9843      9841      9844      9846
      9843      9841      9844      9847      9844      9847      9850      9851
      9844      9847      9850      9852      9844      9847      9850      9853
      9845      9844      9847      9848      9845      9844      9847      9849
      9845      9844      9847      9850      9846      9844      9847      9848
      9846      9844      9847      9849      9846      9844      9847      9850
      9847      9850      9853      9854      9847      9850      9853      9855
      9847      9850      9853      9856      9848      9847      9850      9851
      9848      9847      9850      9852      9848      9847      9850      9853
      9849      9847      9850      9851      9849      9847      9850      9852
      9849      9847      9850      9853      9850      9853      9856      9857
      9850      9853      9856      9858      9850      9853      9856      9859
      9851      9850      9853      9854      9851      9850      9853      9855
      9851      9850      9853      9856      9852      9850      9853      9854
      9852      9850      9853      9855      9852      9850      9853      9856
      9853      9856      9859      9860      9853      9856      9859      9861
      9853      9856      9859      9862      9854      9853      9856      9857
      9854      9853      9856      9858      9854      9853      9856      9859
      9855      9853      9856      9857      9855      9853      9856      9858
      9855      9853      9856      9859      9857      9856      9859      9860
      9857      9856      9859      9861      9857      9856      9859      9862
      9858      9856      9859      9860      9858      9856      9859      9861
      9858      9856      9859      9862      9863      9867      9870      9871
      9863      9867      9870      9901      9863      9909      9906      9901
      9863      9909      9906      9907      9863      9909      9906      9908
      9864      9863      9865      9866      9864      9863      9867      9868
      9864      9863      9867      9869      9864      9863      9867      9870
      9864      9863      9909      9906      9864      9863      9909      9910
      9864      9863      9909      9911      9865      9863      9867      9868
      9865      9863      9867      9869      9865      9863      9867      9870
      9865      9863      9909      9906      9865      9863      9909      9910
      9865      9863      9909      9911      9866      9865      9863      9867
      9866      9865      9863      9909      9867      9863      9909      9906
      9867      9863      9909      9910      9867      9863      9909      9911
      9867      9870      9871      9872      9867      9870      9871      9873
      9867      9870      9901      9899      9867      9870      9901      9902
      9867      9870      9901      9906      9868      9867      9863      9909
      9868      9867      9870      9871      9868      9867      9870      9901
      9869      9867      9863      9909      9869      9867      9870      9871
      9869      9867      9870      9901      9870      9867      9863      9909
      9870      9871      9873      9874      9870      9871      9873      9875
      9870      9871      9873      9876      9870      9901      9899      9876
      9870      9901      9899      9896      9870      9901      9899      9900
      9870      9901      9902      9903      9870      9901      9902      9904
      9870      9901      9902      9905      9870      9901      9906      9907
      9870      9901      9906      9908      9870      9901      9906      9909
      9871      9870      9901      9899      9871      9870      9901      9902
      9871      9870      9901      9906      9871      9873      9876      9877
      9871      9873      9876      9878      9871      9873      9876      9899
      9872      9871      9870      9901      9872      9871      9873      9874
      9872      9871      9873      9875      9872      9871      9873      9876
      9873      9871      9870      9901      9873      9876      9878      9879
      9873      9876      9878      9880      9873      9876      9878      9888
      9873      9876      9899      9896      9873      9876      9899      9900
      9873      9876      9899      9901      9874      9873      9876      9877
      9874      9873      9876      9878      9874      9873      9876      9899
      9875      9873      9876      9877      9875      9873      9876      9878
      9875      9873      9876      9899      9876      9878      9880      9881
      9876      9878      9880      9882      9876      9878      9880      9883
      9876      9878      9888      9886      9876      9878      9888      9889
      9876      9878      9888      9893      9876      9899      9896      9893
      9876      9899      9896      9897      9876      9899      9896      9898
      9876      9899      9901      9902      9876      9899      9901      9906
      9877      9876      9878      9879      9877      9876      9878      9880
      9877      9876      9878      9888      9877      9876      9899      9896
      9877      9876      9899      9900      9877      9876      9899      9901
      9878      9876      9899      9896      9878      9876      9899      9900
      9878      9876      9899      9901      9878      9880      9883      9884
      9878      9880      9883      9885      9878      9880      9883      9886
      9878      9888      9886      9883      9878      9888      9886      9887
      9878      9888      9886      9912      9878      9888      9889      9890
      9878      9888      9889      9891      9878      9888      9889      9892
      9878      9888      9893      9894      9878      9888      9893      9895
      9878      9888      9893      9896      9879      9878      9876      9899
      9879      9878      9880      9881      9879      9878      9880      9882
      9879      9878      9880      9883      9879      9878      9888      9886
      9879      9878      9888      9889      9879      9878      9888      9893
      9880      9878      9876      9899      9880      9878      9888      9886
      9880      9878      9888      9889      9880      9878      9888      9893
      9880      9883      9886      9887      9880      9883      9886      9888
      9880      9883      9886      9912      9881      9880      9878      9888
      9881      9880      9883      9884      9881      9880      9883      9885
      9881      9880      9883      9886      9882      9880      9878      9888
      9882      9880      9883      9884      9882      9880      9883      9885
      9882      9880      9883      9886      9883      9880      9878      9888
      9883      9886      9888      9889      9883      9886      9888      9893
      9883      9886      9912      9913      9883      9886      9912      9914
      9883      9886      9912      9918      9884      9883      9886      9887
      9884      9883      9886      9888      9884      9883      9886      9912
      9885      9883      9886      9887      9885      9883      9886      9888
      9885      9883      9886      9912      9886      9888      9889      9890
      9886      9888      9889      9891      9886      9888      9889      9892
      9886      9888      9893      9894      9886      9888      9893      9895
      9886      9888      9893      9896      9886      9912      9914      9915
      9886      9912      9914      9916      9886      9912      9914      9917
      9886      9912      9918      9919      9886      9912      9918      9920
      9886      9912      9918      9921      9887      9886      9888      9889
      9887      9886      9888      9893      9887      9886      9912      9913
      9887      9886      9912      9914      9887      9886      9912      9918
      9888      9878      9876      9899      9888      9886      9912      9913
      9888      9886      9912      9914      9888      9886      9912      9918
      9888      9893      9896      9897      9888      9893      9896      9898
      9888      9893      9896      9899      9889      9888      9886      9912
      9889      9888      9893      9894      9889      9888      9893      9895
      9889      9888      9893      9896      9890      9889      9888      9893
      9891      9889      9888      9893      9892      9889      9888      9893
      9893      9888      9886      9912      9893      9896      9899      9900
      9893      9896      9899      9901      9894      9893      9896      9897
      9894      9893      9896      9898      9894      9893      9896      9899
      9895      9893      9896      9897      9895      9893      9896      9898
      9895      9893      9896      9899      9896      9899      9901      9902
      9896      9899      9901      9906      9897      9896      9899      9900
      9897      9896      9899      9901      9898      9896      9899      9900
      9898      9896      9899      9901      9899      9901      9902      9903
      9899      9901      9902      9904      9899      9901      9902      9905
      9899      9901      9906      9907      9899      9901      9906      9908
      9899      9901      9906      9909      9900      9899      9901      9902
      9900      9899      9901      9906      9901      9906      9909      9910
      9901      9906      9909      9911      9902      9901      9906      9907
      9902      9901      9906      9908      9902      9901      9906      9909
      9903      9902      9901      9906      9904      9902      9901      9906
      9905      9902      9901      9906      9907      9906      9909      9910
      9907      9906      9909      9911      9908      9906      9909      9910
      9908      9906      9909      9911      9912      9918      9921      9922
      9912      9918      9921      9923      9912      9918      9921      9924
      9913      9912      9914      9915      9913      9912      9914      9916
      9913      9912      9914      9917      9913      9912      9918      9919
      9913      9912      9918      9920      9913      9912      9918      9921
      9914      9912      9918      9919      9914      9912      9918      9920
      9914      9912      9918      9921      9915      9914      9912      9918
      9916      9914      9912      9918      9917      9914      9912      9918
      9918      9921      9924      9925      9918      9921      9924      9926
      9918      9921      9924      9927      9919      9918      9921      9922
      9919      9918      9921      9923      9919      9918      9921      9924
      9920      9918      9921      9922      9920      9918      9921      9923
      9920      9918      9921      9924      9921      9924      9927      9928
      9921      9924      9927      9929      9921      9924      9927      9933
      9922      9921      9924      9925      9922      9921      9924      9926
      9922      9921      9924      9927      9923      9921      9924      9925
      9923      9921      9924      9926      9923      9921      9924      9927
      9924      9927      9929      9930      9924      9927      9929      9931
      9924      9927      9929      9932      9924      9927      9933      9934
      9924      9927      9933      9935      9924      9927      9933      9936
      9925      9924      9927      9928      9925      9924      9927      9929
      9925      9924      9927      9933      9926      9924      9927      9928
      9926      9924      9927      9929      9926      9924      9927      9933
      9928      9927      9929      9930      9928      9927      9929      9931
      9928      9927      9929      9932      9928      9927      9933      9934
      9928      9927      9933      9935      9928      9927      9933      9936
      9929      9927      9933      9934      9929      9927      9933      9935
      9929      9927      9933      9936      9930      9929      9927      9933
      9931      9929      9927      9933      9932      9929      9927      9933
      9937      9950      9953      9954      9937      9950      9953      9955
      9937      9950      9953      9959      9938      9937      9942      9943
      9938      9937      9942      9944      9938      9937      9942      9945
      9938      9937      9946      9947      9938      9937      9946      9948
      9938      9937      9946      9949      9938      9937      9950      9951
      9938      9937      9950      9952      9938      9937      9950      9953
      9939      9938      9937      9942      9939      9938      9937      9946
      9939      9938      9937      9950      9940      9938      9937      9942
      9940      9938      9937      9946      9940      9938      9937      9950
      9941      9938      9937      9942      9941      9938      9937      9946
      9941      9938      9937      9950      9942      9937      9946      9947
      9942      9937      9946      9948      9942      9937      9946      9949
      9942      9937      9950      9951      9942      9937      9950      9952
      9942      9937      9950      9953      9943      9942      9937      9946
      9943      9942      9937      9950      9944      9942      9937      9946
      9944      9942      9937      9950      9945      9942      9937      9946
      9945      9942      9937      9950      9946      9937      9950      9951
      9946      9937      9950      9952      9946      9937      9950      9953
      9947      9946      9937      9950      9948      9946      9937      9950
      9949      9946      9937      9950      9950      9953      9959      9956
      9951      9950      9953      9954      9951      9950      9953      9955
      9951      9950      9953      9959      9952      9950      9953      9954
      9952      9950      9953      9955      9952      9950      9953      9959
      9953      9959      9956      9957      9953      9959      9956      9958
      9953      9959      9956      9960      9954      9953      9959      9956
      9955      9953      9959      9956      9956      9960      9961      9962
      9956      9960      9961      9963      9956      9960      9961      9964
      9957      9956      9960      9961      9958      9956      9960      9961
      9959      9956      9960      9961      9960      9961      9964      9965
      9960      9961      9964      9966      9960      9961      9964      9972
      9961      9964      9966      9967      9961      9964      9972      9973
      9961      9964      9972      9974      9961      9964      9972      9975
      9962      9961      9964      9965      9962      9961      9964      9966
      9962      9961      9964      9972      9963      9961      9964      9965
      9963      9961      9964      9966      9963      9961      9964      9972
      9964      9966      9967      9968      9964      9966      9967      9969
      9964      9972      9975      9976      9965      9964      9966      9967
      9965      9964      9972      9973      9965      9964      9972      9974
      9965      9964      9972      9975      9966      9964      9972      9973
      9966      9964      9972      9974      9966      9964      9972      9975
      9966      9967      9969      9970      9966      9967      9969      9971
      9966      9967      9969      9981      9967      9966      9964      9972
      9967      9969      9981      9982      9967      9969      9981      9983
      9967      9969      9981      9984      9968      9967      9969      9970
      9968      9967      9969      9971      9968      9967      9969      9981
      9969      9981      9984      9985      9969      9981      9984      9986
      9969      9981      9984      9987      9970      9969      9981      9982
      9970      9969      9981      9983      9970      9969      9981      9984
      9971      9969      9981      9982      9971      9969      9981      9983
      9971      9969      9981      9984      9972      9975      9976      9977
      9972      9975      9976      9978      9973      9972      9975      9976
      9974      9972      9975      9976      9975      9976      9978      9979
      9975      9976      9978      9980      9975      9976      9978     10026
      9976      9978     10026     10027      9976      9978     10026     10028
      9976      9978     10026     10029      9977      9976      9978      9979
      9977      9976      9978      9980      9977      9976      9978     10026
      9978     10026     10029     10030      9978     10026     10029     10031
      9978     10026     10029     10032      9979      9978     10026     10027
      9979      9978     10026     10028      9979      9978     10026     10029
      9980      9978     10026     10027      9980      9978     10026     10028
      9980      9978     10026     10029      9981      9984      9987      9988
      9981      9984      9987      9989      9981      9984      9987      9990
      9982      9981      9984      9985      9982      9981      9984      9986
      9982      9981      9984      9987      9983      9981      9984      9985
      9983      9981      9984      9986      9983      9981      9984      9987
      9984      9987      9990      9991      9984      9987      9990      9992
      9984      9987      9990      9993      9985      9984      9987      9988
      9985      9984      9987      9989      9985      9984      9987      9990
      9986      9984      9987      9988      9986      9984      9987      9989
      9986      9984      9987      9990      9987      9990      9993      9994
      9987      9990      9993      9995      9987      9990      9993      9996
      9988      9987      9990      9991      9988      9987      9990      9992
      9988      9987      9990      9993      9989      9987      9990      9991
      9989      9987      9990      9992      9989      9987      9990      9993
      9990      9993      9996      9997      9990      9993      9996      9998
      9990      9993      9996      9999      9991      9990      9993      9994
      9991      9990      9993      9995      9991      9990      9993      9996
      9992      9990      9993      9994      9992      9990      9993      9995
      9992      9990      9993      9996      9993      9996      9999     10000
      9993      9996      9999     10001      9994      9993      9996      9997
      9994      9993      9996      9998      9994      9993      9996      9999
      9995      9993      9996      9997      9995      9993      9996      9998
      9995      9993      9996      9999      9996      9999     10001     10002
      9996      9999     10001     10003      9997      9996      9999     10000
      9997      9996      9999     10001      9998      9996      9999     10000
      9998      9996      9999     10001      9999     10001     10003     10004
      9999     10001     10003     10005      9999     10001     10003     10006
     10000      9999     10001     10002     10000      9999     10001     10003
     10001     10003     10006     10007     10001     10003     10006     10008
     10002     10001     10003     10004     10002     10001     10003     10005
     10002     10001     10003     10006     10003     10006     10008     10009
     10003     10006     10008     10010     10004     10003     10006     10007
     10004     10003     10006     10008     10005     10003     10006     10007
     10005     10003     10006     10008     10006     10008     10010     10011
     10006     10008     10010     10012     10006     10008     10010     10013
     10007     10006     10008     10009     10007     10006     10008     10010
     10008     10010     10013     10014     10008     10010     10013     10015
     10008     10010     10013     10016     10009     10008     10010     10011
     10009     10008     10010     10012     10009     10008     10010     10013
     10010     10013     10016     10017     10010     10013     10016     10018
     10010     10013     10016     10019     10011     10010     10013     10014
     10011     10010     10013     10015     10011     10010     10013     10016
     10012     10010     10013     10014     10012     10010     10013     10015
     10012     10010     10013     10016     10013     10016     10019     10020
     10013     10016     10019     10021     10013     10016     10019     10022
     10014     10013     10016     10017     10014     10013     10016     10018
     10014     10013     10016     10019     10015     10013     10016     10017
     10015     10013     10016     10018     10015     10013     10016     10019
     10016     10019     10022     10023     10016     10019     10022     10024
     10016     10019     10022     10025     10017     10016     10019     10020
     10017     10016     10019     10021     10017     10016     10019     10022
     10018     10016     10019     10020     10018     10016     10019     10021
     10018     10016     10019     10022     10020     10019     10022     10023
     10020     10019     10022     10024     10020     10019     10022     10025
     10021     10019     10022     10023     10021     10019     10022     10024
     10021     10019     10022     10025     10026     10029     10032     10033
     10026     10029     10032     10034     10026     10029     10032     10035
     10027     10026     10029     10030     10027     10026     10029     10031
     10027     10026     10029     10032     10028     10026     10029     10030
     10028     10026     10029     10031     10028     10026     10029     10032
     10029     10032     10035     10036     10029     10032     10035     10037
     10029     10032     10035     10038     10030     10029     10032     10033
     10030     10029     10032     10034     10030     10029     10032     10035
     10031     10029     10032     10033     10031     10029     10032     10034
     10031     10029     10032     10035     10032     10035     10038     10039
     10032     10035     10038     10040     10032     10035     10038     10041
     10033     10032     10035     10036     10033     10032     10035     10037
     10033     10032     10035     10038     10034     10032     10035     10036
     10034     10032     10035     10037     10034     10032     10035     10038
     10035     10038     10041     10042     10035     10038     10041     10043
     10035     10038     10041     10044     10036     10035     10038     10039
     10036     10035     10038     10040     10036     10035     10038     10041
     10037     10035     10038     10039     10037     10035     10038     10040
     10037     10035     10038     10041     10038     10041     10044     10045
     10038     10041     10044     10046     10038     10041     10044     10047
     10039     10038     10041     10042     10039     10038     10041     10043
     10039     10038     10041     10044     10040     10038     10041     10042
     10040     10038     10041     10043     10040     10038     10041     10044
     10041     10044     10047     10048     10041     10044     10047     10049
     10041     10044     10047     10050     10042     10041     10044     10045
     10042     10041     10044     10046     10042     10041     10044     10047
     10043     10041     10044     10045     10043     10041     10044     10046
     10043     10041     10044     10047     10044     10047     10050     10051
     10044     10047     10050     10052     10044     10047     10050     10053
     10045     10044     10047     10048     10045     10044     10047     10049
     10045     10044     10047     10050     10046     10044     10047     10048
     10046     10044     10047     10049     10046     10044     10047     10050
     10047     10050     10053     10054     10047     10050     10053     10055
     10047     10050     10053     10056     10048     10047     10050     10051
     10048     10047     10050     10052     10048     10047     10050     10053
     10049     10047     10050     10051     10049     10047     10050     10052
     10049     10047     10050     10053     10050     10053     10056     10057
     10050     10053     10056     10058     10050     10053     10056     10059
     10051     10050     10053     10054     10051     10050     10053     10055
     10051     10050     10053     10056     10052     10050     10053     10054
     10052     10050     10053     10055     10052     10050     10053     10056
     10053     10056     10059     10060     10053     10056     10059     10061
     10053     10056     10059     10062     10054     10053     10056     10057
     10054     10053     10056     10058     10054     10053     10056     10059
     10055     10053     10056     10057     10055     10053     10056     10058
     10055     10053     10056     10059     10056     10059     10062     10063
     10056     10059     10062     10064     10056     10059     10062     10065
     10057     10056     10059     10060     10057     10056     10059     10061
     10057     10056     10059     10062     10058     10056     10059     10060
     10058     10056     10059     10061     10058     10056     10059     10062
     10059     10062     10065     10066     10059     10062     10065     10067
     10059     10062     10065     10068     10060     10059     10062     10063
     10060     10059     10062     10064     10060     10059     10062     10065
     10061     10059     10062     10063     10061     10059     10062     10064
     10061     10059     10062     10065     10062     10065     10068     10069
     10062     10065     10068     10070     10062     10065     10068     10071
     10063     10062     10065     10066     10063     10062     10065     10067
     10063     10062     10065     10068     10064     10062     10065     10066
     10064     10062     10065     10067     10064     10062     10065     10068
     10065     10068     10071     10072     10065     10068     10071     10073
     10065     10068     10071     10074     10066     10065     10068     10069
     10066     10065     10068     10070     10066     10065     10068     10071
     10067     10065     10068     10069     10067     10065     10068     10070
     10067     10065     10068     10071     10069     10068     10071     10072
     10069     10068     10071     10073     10069     10068     10071     10074
     10070     10068     10071     10072     10070     10068     10071     10073
     10070     10068     10071     10074     10075     10079     10082     10083
     10075     10079     10082     10113     10075     10121     10118     10113
     10075     10121     10118     10119     10075     10121     10118     10120
     10076     10075     10077     10078     10076     10075     10079     10080
     10076     10075     10079     10081     10076     10075     10079     10082
     10076     10075     10121     10118     10076     10075     10121     10122
     10076     10075     10121     10123     10077     10075     10079     10080
     10077     10075     10079     10081     10077     10075     10079     10082
     10077     10075     10121     10118     10077     10075     10121     10122
     10077     10075     10121     10123     10078     10077     10075     10079
     10078     10077     10075     10121     10079     10075     10121     10118
     10079     10075     10121     10122     10079     10075     10121     10123
     10079     10082     10083     10084     10079     10082     10083     10085
     10079     10082     10113     10111     10079     10082     10113     10114
     10079     10082     10113     10118     10080     10079     10075     10121
     10080     10079     10082     10083     10080     10079     10082     10113
     10081     10079     10075     10121     10081     10079     10082     10083
     10081     10079     10082     10113     10082     10079     10075     10121
     10082     10083     10085     10086     10082     10083     10085     10087
     10082     10083     10085     10088     10082     10113     10111     10088
     10082     10113     10111     10108     10082     10113     10111     10112
     10082     10113     10114     10115     10082     10113     10114     10116
     10082     10113     10114     10117     10082     10113     10118     10119
     10082     10113     10118     10120     10082     10113     10118     10121
     10083     10082     10113     10111     10083     10082     10113     10114
     10083     10082     10113     10118     10083     10085     10088     10089
     10083     10085     10088     10090     10083     10085     10088     10111
     10084     10083     10082     10113     10084     10083     10085     10086
     10084     10083     10085     10087     10084     10083     10085     10088
     10085     10083     10082     10113     10085     10088     10090     10091
     10085     10088     10090     10092     10085     10088     10090     10100
     10085     10088     10111     10108     10085     10088     10111     10112
     10085     10088     10111     10113     10086     10085     10088     10089
     10086     10085     10088     10090     10086     10085     10088     10111
     10087     10085     10088     10089     10087     10085     10088     10090
     10087     10085     10088     10111     10088     10090     10092     10093
     10088     10090     10092     10094     10088     10090     10092     10095
     10088     10090     10100     10098     10088     10090     10100     10101
     10088     10090     10100     10105     10088     10111     10108     10105
     10088     10111     10108     10109     10088     10111     10108     10110
     10088     10111     10113     10114     10088     10111     10113     10118
     10089     10088     10090     10091     10089     10088     10090     10092
     10089     10088     10090     10100     10089     10088     10111     10108
     10089     10088     10111     10112     10089     10088     10111     10113
     10090     10088     10111     10108     10090     10088     10111     10112
     10090     10088     10111     10113     10090     10092     10095     10096
     10090     10092     10095     10097     10090     10092     10095     10098
     10090     10100     10098     10095     10090     10100     10098     10099
     10090     10100     10098     10124     10090     10100     10101     10102
     10090     10100     10101     10103     10090     10100     10101     10104
     10090     10100     10105     10106     10090     10100     10105     10107
     10090     10100     10105     10108     10091     10090     10088     10111
     10091     10090     10092     10093     10091     10090     10092     10094
     10091     10090     10092     10095     10091     10090     10100     10098
     10091     10090     10100     10101     10091     10090     10100     10105
     10092     10090     10088     10111     10092     10090     10100     10098
     10092     10090     10100     10101     10092     10090     10100     10105
     10092     10095     10098     10099     10092     10095     10098     10100
     10092     10095     10098     10124     10093     10092     10090     10100
     10093     10092     10095     10096     10093     10092     10095     10097
     10093     10092     10095     10098     10094     10092     10090     10100
     10094     10092     10095     10096     10094     10092     10095     10097
     10094     10092     10095     10098     10095     10092     10090     10100
     10095     10098     10100     10101     10095     10098     10100     10105
     10095     10098     10124     10125     10095     10098     10124     10126
     10095     10098     10124     10130     10096     10095     10098     10099
     10096     10095     10098     10100     10096     10095     10098     10124
     10097     10095     10098     10099     10097     10095     10098     10100
     10097     10095     10098     10124     10098     10100     10101     10102
     10098     10100     10101     10103     10098     10100     10101     10104
     10098     10100     10105     10106     10098     10100     10105     10107
     10098     10100     10105     10108     10098     10124     10126     10127
     10098     10124     10126     10128     10098     10124     10126     10129
     10098     10124     10130     10131     10098     10124     10130     10132
     10098     10124     10130     10133     10099     10098     10100     10101
     10099     10098     10100     10105     10099     10098     10124     10125
     10099     10098     10124     10126     10099     10098     10124     10130
     10100     10090     10088     10111     10100     10098     10124     10125
     10100     10098     10124     10126     10100     10098     10124     10130
     10100     10105     10108     10109     10100     10105     10108     10110
     10100     10105     10108     10111     10101     10100     10098     10124
     10101     10100     10105     10106     10101     10100     10105     10107
     10101     10100     10105     10108     10102     10101     10100     10105
     10103     10101     10100     10105     10104     10101     10100     10105
     10105     10100     10098     10124     10105     10108     10111     10112
     10105     10108     10111     10113     10106     10105     10108     10109
     10106     10105     10108     10110     10106     10105     10108     10111
     10107     10105     10108     10109     10107     10105     10108     10110
     10107     10105     10108     10111     10108     10111     10113     10114
     10108     10111     10113     10118     10109     10108     10111     10112
     10109     10108     10111     10113     10110     10108     10111     10112
     10110     10108     10111     10113     10111     10113     10114     10115
     10111     10113     10114     10116     10111     10113     10114     10117
     10111     10113     10118     10119     10111     10113     10118     10120
     10111     10113     10118     10121     10112     10111     10113     10114
     10112     10111     10113     10118     10113     10118     10121     10122
     10113     10118     10121     10123     10114     10113     10118     10119
     10114     10113     10118     10120     10114     10113     10118     10121
     10115     10114     10113     10118     10116     10114     10113     10118
     10117     10114     10113     10118     10119     10118     10121     10122
     10119     10118     10121     10123     10120     10118     10121     10122
     10120     10118     10121     10123     10124     10130     10133     10134
     10124     10130     10133     10135     10124     10130     10133     10136
     10125     10124     10126     10127     10125     10124     10126     10128
     10125     10124     10126     10129     10125     10124     10130     10131
     10125     10124     10130     10132     10125     10124     10130     10133
     10126     10124     10130     10131     10126     10124     10130     10132
     10126     10124     10130     10133     10127     10126     10124     10130
     10128     10126     10124     10130     10129     10126     10124     10130
     10130     10133     10136     10137     10130     10133     10136     10138
     10130     10133     10136     10139     10131     10130     10133     10134
     10131     10130     10133     10135     10131     10130     10133     10136
     10132     10130     10133     10134     10132     10130     10133     10135
     10132     10130     10133     10136     10133     10136     10139     10140
     10133     10136     10139     10141     10133     10136     10139     10145
     10134     10133     10136     10137     10134     10133     10136     10138
     10134     10133     10136     10139     10135     10133     10136     10137
     10135     10133     10136     10138     10135     10133     10136     10139
     10136     10139     10141     10142     10136     10139     10141     10143
     10136     10139     10141     10144     10136     10139     10145     10146
     10136     10139     10145     10147     10136     10139     10145     10148
     10137     10136     10139     10140     10137     10136     10139     10141
     10137     10136     10139     10145     10138     10136     10139     10140
     10138     10136     10139     10141     10138     10136     10139     10145
     10140     10139     10141     10142     10140     10139     10141     10143
     10140     10139     10141     10144     10140     10139     10145     10146
     10140     10139     10145     10147     10140     10139     10145     10148
     10141     10139     10145     10146     10141     10139     10145     10147
     10141     10139     10145     10148     10142     10141     10139     10145
     10143     10141     10139     10145     10144     10141     10139     10145
     10149     10153     10156     10157     10149     10153     10156     10187
     10149     10195     10192     10187     10149     10195     10192     10193
     10149     10195     10192     10194     10150     10149     10151     10152
     10150     10149     10153     10154     10150     10149     10153     10155
     10150     10149     10153     10156     10150     10149     10195     10192
     10150     10149     10195     10196     10150     10149     10195     10197
     10151     10149     10153     10154     10151     10149     10153     10155
     10151     10149     10153     10156     10151     10149     10195     10192
     10151     10149     10195     10196     10151     10149     10195     10197
     10152     10151     10149     10153     10152     10151     10149     10195
     10153     10149     10195     10192     10153     10149     10195     10196
     10153     10149     10195     10197     10153     10156     10157     10158
     10153     10156     10157     10159     10153     10156     10187     10185
     10153     10156     10187     10188     10153     10156     10187     10192
     10154     10153     10149     10195     10154     10153     10156     10157
     10154     10153     10156     10187     10155     10153     10149     10195
     10155     10153     10156     10157     10155     10153     10156     10187
     10156     10153     10149     10195     10156     10157     10159     10160
     10156     10157     10159     10161     10156     10157     10159     10162
     10156     10187     10185     10162     10156     10187     10185     10182
     10156     10187     10185     10186     10156     10187     10188     10189
     10156     10187     10188     10190     10156     10187     10188     10191
     10156     10187     10192     10193     10156     10187     10192     10194
     10156     10187     10192     10195     10157     10156     10187     10185
     10157     10156     10187     10188     10157     10156     10187     10192
     10157     10159     10162     10163     10157     10159     10162     10164
     10157     10159     10162     10185     10158     10157     10156     10187
     10158     10157     10159     10160     10158     10157     10159     10161
     10158     10157     10159     10162     10159     10157     10156     10187
     10159     10162     10164     10165     10159     10162     10164     10166
     10159     10162     10164     10174     10159     10162     10185     10182
     10159     10162     10185     10186     10159     10162     10185     10187
     10160     10159     10162     10163     10160     10159     10162     10164
     10160     10159     10162     10185     10161     10159     10162     10163
     10161     10159     10162     10164     10161     10159     10162     10185
     10162     10164     10166     10167     10162     10164     10166     10168
     10162     10164     10166     10169     10162     10164     10174     10172
     10162     10164     10174     10175     10162     10164     10174     10179
     10162     10185     10182     10179     10162     10185     10182     10183
     10162     10185     10182     10184     10162     10185     10187     10188
     10162     10185     10187     10192     10163     10162     10164     10165
     10163     10162     10164     10166     10163     10162     10164     10174
     10163     10162     10185     10182     10163     10162     10185     10186
     10163     10162     10185     10187     10164     10162     10185     10182
     10164     10162     10185     10186     10164     10162     10185     10187
     10164     10166     10169     10170     10164     10166     10169     10171
     10164     10166     10169     10172     10164     10174     10172     10169
     10164     10174     10172     10173     10164     10174     10172     10198
     10164     10174     10175     10176     10164     10174     10175     10177
     10164     10174     10175     10178     10164     10174     10179     10180
     10164     10174     10179     10181     10164     10174     10179     10182
     10165     10164     10162     10185     10165     10164     10166     10167
     10165     10164     10166     10168     10165     10164     10166     10169
     10165     10164     10174     10172     10165     10164     10174     10175
     10165     10164     10174     10179     10166     10164     10162     10185
     10166     10164     10174     10172     10166     10164     10174     10175
     10166     10164     10174     10179     10166     10169     10172     10173
     10166     10169     10172     10174     10166     10169     10172     10198
     10167     10166     10164     10174     10167     10166     10169     10170
     10167     10166     10169     10171     10167     10166     10169     10172
     10168     10166     10164     10174     10168     10166     10169     10170
     10168     10166     10169     10171     10168     10166     10169     10172
     10169     10166     10164     10174     10169     10172     10174     10175
     10169     10172     10174     10179     10169     10172     10198     10199
     10169     10172     10198     10200     10169     10172     10198     10204
     10170     10169     10172     10173     10170     10169     10172     10174
     10170     10169     10172     10198     10171     10169     10172     10173
     10171     10169     10172     10174     10171     10169     10172     10198
     10172     10174     10175     10176     10172     10174     10175     10177
     10172     10174     10175     10178     10172     10174     10179     10180
     10172     10174     10179     10181     10172     10174     10179     10182
     10172     10198     10200     10201     10172     10198     10200     10202
     10172     10198     10200     10203     10172     10198     10204     10205
     10172     10198     10204     10206     10172     10198     10204     10207
     10173     10172     10174     10175     10173     10172     10174     10179
     10173     10172     10198     10199     10173     10172     10198     10200
     10173     10172     10198     10204     10174     10164     10162     10185
     10174     10172     10198     10199     10174     10172     10198     10200
     10174     10172     10198     10204     10174     10179     10182     10183
     10174     10179     10182     10184     10174     10179     10182     10185
     10175     10174     10172     10198     10175     10174     10179     10180
     10175     10174     10179     10181     10175     10174     10179     10182
     10176     10175     10174     10179     10177     10175     10174     10179
     10178     10175     10174     10179     10179     10174     10172     10198
     10179     10182     10185     10186     10179     10182     10185     10187
     10180     10179     10182     10183     10180     10179     10182     10184
     10180     10179     10182     10185     10181     10179     10182     10183
     10181     10179     10182     10184     10181     10179     10182     10185
     10182     10185     10187     10188     10182     10185     10187     10192
     10183     10182     10185     10186     10183     10182     10185     10187
     10184     10182     10185     10186     10184     10182     10185     10187
     10185     10187     10188     10189     10185     10187     10188     10190
     10185     10187     10188     10191     10185     10187     10192     10193
     10185     10187     10192     10194     10185     10187     10192     10195
     10186     10185     10187     10188     10186     10185     10187     10192
     10187     10192     10195     10196     10187     10192     10195     10197
     10188     10187     10192     10193     10188     10187     10192     10194
     10188     10187     10192     10195     10189     10188     10187     10192
     10190     10188     10187     10192     10191     10188     10187     10192
     10193     10192     10195     10196     10193     10192     10195     10197
     10194     10192     10195     10196     10194     10192     10195     10197
     10198     10204     10207     10208     10198     10204     10207     10209
     10198     10204     10207     10210     10199     10198     10200     10201
     10199     10198     10200     10202     10199     10198     10200     10203
     10199     10198     10204     10205     10199     10198     10204     10206
     10199     10198     10204     10207     10200     10198     10204     10205
     10200     10198     10204     10206     10200     10198     10204     10207
     10201     10200     10198     10204     10202     10200     10198     10204
     10203     10200     10198     10204     10204     10207     10210     10211
     10204     10207     10210     10212     10204     10207     10210     10213
     10205     10204     10207     10208     10205     10204     10207     10209
     10205     10204     10207     10210     10206     10204     10207     10208
     10206     10204     10207     10209     10206     10204     10207     10210
     10207     10210     10213     10214     10207     10210     10213     10215
     10207     10210     10213     10219     10208     10207     10210     10211
     10208     10207     10210     10212     10208     10207     10210     10213
     10209     10207     10210     10211     10209     10207     10210     10212
     10209     10207     10210     10213     10210     10213     10215     10216
     10210     10213     10215     10217     10210     10213     10215     10218
     10210     10213     10219     10220     10210     10213     10219     10221
     10210     10213     10219     10222     10211     10210     10213     10214
     10211     10210     10213     10215     10211     10210     10213     10219
     10212     10210     10213     10214     10212     10210     10213     10215
     10212     10210     10213     10219     10214     10213     10215     10216
     10214     10213     10215     10217     10214     10213     10215     10218
     10214     10213     10219     10220     10214     10213     10219     10221
     10214     10213     10219     10222     10215     10213     10219     10220
     10215     10213     10219     10221     10215     10213     10219     10222
     10216     10215     10213     10219     10217     10215     10213     10219
     10218     10215     10213     10219     10223     10227     10230     10231
     10223     10227     10230     10232     10223     10227     10230     10236
     10224     10223     10227     10228     10224     10223     10227     10229
     10224     10223     10227     10230     10225     10223     10227     10228
     10225     10223     10227     10229     10225     10223     10227     10230
     10226     10223     10227     10228     10226     10223     10227     10229
     10226     10223     10227     10230     10227     10230     10236     10233
     10228     10227     10230     10231     10228     10227     10230     10232
     10228     10227     10230     10236     10229     10227     10230     10231
     10229     10227     10230     10232     10229     10227     10230     10236
     10230     10236     10233     10234     10230     10236     10233     10235
     10230     10236     10233     10237     10231     10230     10236     10233
     10232     10230     10236     10233     10233     10237     10238     10239
     10233     10237     10238     10240     10233     10237     10238     10241
     10234     10233     10237     10238     10235     10233     10237     10238
     10236     10233     10237     10238     10237     10238     10241     10242
     10237     10238     10241     10243     10237     10238     10241     10249
     10238     10241     10243     10244     10238     10241     10249     10250
     10238     10241     10249     10251     10238     10241     10249     10252
     10239     10238     10241     10242     10239     10238     10241     10243
     10239     10238     10241     10249     10240     10238     10241     10242
     10240     10238     10241     10243     10240     10238     10241     10249
     10241     10243     10244     10245     10241     10243     10244     10246
     10241     10249     10252     10253     10242     10241     10243     10244
     10242     10241     10249     10250     10242     10241     10249     10251
     10242     10241     10249     10252     10243     10241     10249     10250
     10243     10241     10249     10251     10243     10241     10249     10252
     10243     10244     10246     10247     10243     10244     10246     10248
     10243     10244     10246     10258     10244     10243     10241     10249
     10244     10246     10258     10259     10244     10246     10258     10260
     10244     10246     10258     10261     10245     10244     10246     10247
     10245     10244     10246     10248     10245     10244     10246     10258
     10246     10258     10261     10262     10246     10258     10261     10263
     10246     10258     10261     10264     10247     10246     10258     10259
     10247     10246     10258     10260     10247     10246     10258     10261
     10248     10246     10258     10259     10248     10246     10258     10260
     10248     10246     10258     10261     10249     10252     10253     10254
     10249     10252     10253     10255     10250     10249     10252     10253
     10251     10249     10252     10253     10252     10253     10255     10256
     10252     10253     10255     10257     10252     10253     10255     10305
     10253     10255     10305     10306     10253     10255     10305     10307
     10253     10255     10305     10308     10254     10253     10255     10256
     10254     10253     10255     10257     10254     10253     10255     10305
     10255     10305     10308     10309     10255     10305     10308     10310
     10255     10305     10308     10311     10256     10255     10305     10306
     10256     10255     10305     10307     10256     10255     10305     10308
     10257     10255     10305     10306     10257     10255     10305     10307
     10257     10255     10305     10308     10258     10261     10264     10265
     10258     10261     10264     10266     10259     10258     10261     10262
     10259     10258     10261     10263     10259     10258     10261     10264
     10260     10258     10261     10262     10260     10258     10261     10263
     10260     10258     10261     10264     10261     10264     10266     10267
     10261     10264     10266     10268     10262     10261     10264     10265
     10262     10261     10264     10266     10263     10261     10264     10265
     10263     10261     10264     10266     10264     10266     10268     10269
     10264     10266     10268     10270     10264     10266     10268     10271
     10265     10264     10266     10267     10265     10264     10266     10268
     10266     10268     10271     10272     10266     10268     10271     10273
     10267     10266     10268     10269     10267     10266     10268     10270
     10267     10266     10268     10271     10268     10271     10273     10274
     10268     10271     10273     10275     10269     10268     10271     10272
     10269     10268     10271     10273     10270     10268     10271     10272
     10270     10268     10271     10273     10271     10273     10275     10276
     10271     10273     10275     10277     10271     10273     10275     10278
     10272     10271     10273     10274     10272     10271     10273     10275
     10273     10275     10278     10279     10273     10275     10278     10280
     10274     10273     10275     10276     10274     10273     10275     10277
     10274     10273     10275     10278     10275     10278     10280     10281
     10275     10278     10280     10282     10276     10275     10278     10279
     10276     10275     10278     10280     10277     10275     10278     10279
     10277     10275     10278     10280     10278     10280     10282     10283
     10278     10280     10282     10284     10278     10280     10282     10285
     10279     10278     10280     10281     10279     10278     10280     10282
     10280     10282     10285     10286     10280     10282     10285     10287
     10281     10280     10282     10283     10281     10280     10282     10284
     10281     10280     10282     10285     10282     10285     10287     10288
     10282     10285     10287     10289     10283     10282     10285     10286
     10283     10282     10285     10287     10284     10282     10285     10286
     10284     10282     10285     10287     10285     10287     10289     10290
     10285     10287     10289     10291     10285     10287     10289     10292
     10286     10285     10287     10288     10286     10285     10287     10289
     10287     10289     10292     10293     10287     10289     10292     10294
     10287     10289     10292     10295     10288     10287     10289     10290
     10288     10287     10289     10291     10288     10287     10289     10292
     10289     10292     10295     10296     10289     10292     10295     10297
     10289     10292     10295     10298     10290     10289     10292     10293
     10290     10289     10292     10294     10290     10289     10292     10295
     10291     10289     10292     10293     10291     10289     10292     10294
     10291     10289     10292     10295     10292     10295     10298     10299
     10292     10295     10298     10300     10292     10295     10298     10301
     10293     10292     10295     10296     10293     10292     10295     10297
     10293     10292     10295     10298     10294     10292     10295     10296
     10294     10292     10295     10297     10294     10292     10295     10298
     10295     10298     10301     10302     10295     10298     10301     10303
     10295     10298     10301     10304     10296     10295     10298     10299
     10296     10295     10298     10300     10296     10295     10298     10301
     10297     10295     10298     10299     10297     10295     10298     10300
     10297     10295     10298     10301     10299     10298     10301     10302
     10299     10298     10301     10303     10299     10298     10301     10304
     10300     10298     10301     10302     10300     10298     10301     10303
     10300     10298     10301     10304     10305     10308     10311     10312
     10305     10308     10311     10313     10305     10308     10311     10314
     10306     10305     10308     10309     10306     10305     10308     10310
     10306     10305     10308     10311     10307     10305     10308     10309
     10307     10305     10308     10310     10307     10305     10308     10311
     10308     10311     10314     10315     10308     10311     10314     10316
     10308     10311     10314     10317     10309     10308     10311     10312
     10309     10308     10311     10313     10309     10308     10311     10314
     10310     10308     10311     10312     10310     10308     10311     10313
     10310     10308     10311     10314     10311     10314     10317     10318
     10311     10314     10317     10319     10311     10314     10317     10320
     10312     10311     10314     10315     10312     10311     10314     10316
     10312     10311     10314     10317     10313     10311     10314     10315
     10313     10311     10314     10316     10313     10311     10314     10317
     10314     10317     10320     10321     10314     10317     10320     10322
     10314     10317     10320     10323     10315     10314     10317     10318
     10315     10314     10317     10319     10315     10314     10317     10320
     10316     10314     10317     10318     10316     10314     10317     10319
     10316     10314     10317     10320     10317     10320     10323     10324
     10317     10320     10323     10325     10317     10320     10323     10326
     10318     10317     10320     10321     10318     10317     10320     10322
     10318     10317     10320     10323     10319     10317     10320     10321
     10319     10317     10320     10322     10319     10317     10320     10323
     10320     10323     10326     10327     10320     10323     10326     10328
     10320     10323     10326     10329     10321     10320     10323     10324
     10321     10320     10323     10325     10321     10320     10323     10326
     10322     10320     10323     10324     10322     10320     10323     10325
     10322     10320     10323     10326     10323     10326     10329     10330
     10323     10326     10329     10331     10323     10326     10329     10332
     10324     10323     10326     10327     10324     10323     10326     10328
     10324     10323     10326     10329     10325     10323     10326     10327
     10325     10323     10326     10328     10325     10323     10326     10329
     10326     10329     10332     10333     10326     10329     10332     10334
     10326     10329     10332     10335     10327     10326     10329     10330
     10327     10326     10329     10331     10327     10326     10329     10332
     10328     10326     10329     10330     10328     10326     10329     10331
     10328     10326     10329     10332     10329     10332     10335     10336
     10329     10332     10335     10337     10329     10332     10335     10338
     10330     10329     10332     10333     10330     10329     10332     10334
     10330     10329     10332     10335     10331     10329     10332     10333
     10331     10329     10332     10334     10331     10329     10332     10335
     10332     10335     10338     10339     10332     10335     10338     10340
     10332     10335     10338     10341     10333     10332     10335     10336
     10333     10332     10335     10337     10333     10332     10335     10338
     10334     10332     10335     10336     10334     10332     10335     10337
     10334     10332     10335     10338     10335     10338     10341     10342
     10335     10338     10341     10343     10335     10338     10341     10344
     10336     10335     10338     10339     10336     10335     10338     10340
     10336     10335     10338     10341     10337     10335     10338     10339
     10337     10335     10338     10340     10337     10335     10338     10341
     10338     10341     10344     10345     10338     10341     10344     10346
     10338     10341     10344     10347     10339     10338     10341     10342
     10339     10338     10341     10343     10339     10338     10341     10344
     10340     10338     10341     10342     10340     10338     10341     10343
     10340     10338     10341     10344     10341     10344     10347     10348
     10341     10344     10347     10349     10341     10344     10347     10350
     10342     10341     10344     10345     10342     10341     10344     10346
     10342     10341     10344     10347     10343     10341     10344     10345
     10343     10341     10344     10346     10343     10341     10344     10347
     10344     10347     10350     10351     10344     10347     10350     10352
     10344     10347     10350     10353     10345     10344     10347     10348
     10345     10344     10347     10349     10345     10344     10347     10350
     10346     10344     10347     10348     10346     10344     10347     10349
     10346     10344     10347     10350     10348     10347     10350     10351
     10348     10347     10350     10352     10348     10347     10350     10353
     10349     10347     10350     10351     10349     10347     10350     10352
     10349     10347     10350     10353     10354     10358     10360     10361
     10354     10358     10360     10362     10354     10358     10363     10364
     10354     10358     10363     10365     10354     10358     10363     10369
     10355     10354     10358     10359     10355     10354     10358     10360
     10355     10354     10358     10363     10356     10354     10358     10359
     10356     10354     10358     10360     10356     10354     10358     10363
     10357     10354     10358     10359     10357     10354     10358     10360
     10357     10354     10358     10363     10358     10363     10369     10366
     10359     10358     10360     10361     10359     10358     10360     10362
     10359     10358     10363     10364     10359     10358     10363     10365
     10359     10358     10363     10369     10360     10358     10363     10364
     10360     10358     10363     10365     10360     10358     10363     10369
     10361     10360     10358     10363     10362     10360     10358     10363
     10363     10369     10366     10367     10363     10369     10366     10368
     10363     10369     10366     10370     10364     10363     10369     10366
     10365     10363     10369     10366     10366     10370     10371     10372
     10366     10370     10371     10373     10366     10370     10371     10374
     10367     10366     10370     10371     10368     10366     10370     10371
     10369     10366     10370     10371     10370     10371     10374     10375
     10370     10371     10374     10376     10370     10371     10374     10382
     10371     10374     10376     10377     10371     10374     10382     10383
     10371     10374     10382     10384     10371     10374     10382     10385
     10372     10371     10374     10375     10372     10371     10374     10376
     10372     10371     10374     10382     10373     10371     10374     10375
     10373     10371     10374     10376     10373     10371     10374     10382
     10374     10376     10377     10378     10374     10376     10377     10379
     10374     10382     10385     10386     10375     10374     10376     10377
     10375     10374     10382     10383     10375     10374     10382     10384
     10375     10374     10382     10385     10376     10374     10382     10383
     10376     10374     10382     10384     10376     10374     10382     10385
     10376     10377     10379     10380     10376     10377     10379     10381
     10376     10377     10379     10391     10377     10376     10374     10382
     10377     10379     10391     10392     10377     10379     10391     10393
     10377     10379     10391     10394     10378     10377     10379     10380
     10378     10377     10379     10381     10378     10377     10379     10391
     10379     10391     10394     10395     10379     10391     10394     10396
     10379     10391     10394     10397     10380     10379     10391     10392
     10380     10379     10391     10393     10380     10379     10391     10394
     10381     10379     10391     10392     10381     10379     10391     10393
     10381     10379     10391     10394     10382     10385     10386     10387
     10382     10385     10386     10388     10383     10382     10385     10386
     10384     10382     10385     10386     10385     10386     10388     10389
     10385     10386     10388     10390     10385     10386     10388     10438
     10386     10388     10438     10439     10386     10388     10438     10440
     10386     10388     10438     10441     10387     10386     10388     10389
     10387     10386     10388     10390     10387     10386     10388     10438
     10388     10438     10441     10442     10388     10438     10441     10443
     10388     10438     10441     10444     10389     10388     10438     10439
     10389     10388     10438     10440     10389     10388     10438     10441
     10390     10388     10438     10439     10390     10388     10438     10440
     10390     10388     10438     10441     10391     10394     10397     10398
     10391     10394     10397     10399     10392     10391     10394     10395
     10392     10391     10394     10396     10392     10391     10394     10397
     10393     10391     10394     10395     10393     10391     10394     10396
     10393     10391     10394     10397     10394     10397     10399     10400
     10394     10397     10399     10401     10395     10394     10397     10398
     10395     10394     10397     10399     10396     10394     10397     10398
     10396     10394     10397     10399     10397     10399     10401     10402
     10397     10399     10401     10403     10397     10399     10401     10404
     10398     10397     10399     10400     10398     10397     10399     10401
     10399     10401     10404     10405     10399     10401     10404     10406
     10400     10399     10401     10402     10400     10399     10401     10403
     10400     10399     10401     10404     10401     10404     10406     10407
     10401     10404     10406     10408     10402     10401     10404     10405
     10402     10401     10404     10406     10403     10401     10404     10405
     10403     10401     10404     10406     10404     10406     10408     10409
     10404     10406     10408     10410     10404     10406     10408     10411
     10405     10404     10406     10407     10405     10404     10406     10408
     10406     10408     10411     10412     10406     10408     10411     10413
     10407     10406     10408     10409     10407     10406     10408     10410
     10407     10406     10408     10411     10408     10411     10413     10414
     10408     10411     10413     10415     10409     10408     10411     10412
     10409     10408     10411     10413     10410     10408     10411     10412
     10410     10408     10411     10413     10411     10413     10415     10416
     10411     10413     10415     10417     10411     10413     10415     10418
     10412     10411     10413     10414     10412     10411     10413     10415
     10413     10415     10418     10419     10413     10415     10418     10420
     10414     10413     10415     10416     10414     10413     10415     10417
     10414     10413     10415     10418     10415     10418     10420     10421
     10415     10418     10420     10422     10416     10415     10418     10419
     10416     10415     10418     10420     10417     10415     10418     10419
     10417     10415     10418     10420     10418     10420     10422     10423
     10418     10420     10422     10424     10418     10420     10422     10425
     10419     10418     10420     10421     10419     10418     10420     10422
     10420     10422     10425     10426     10420     10422     10425     10427
     10420     10422     10425     10428     10421     10420     10422     10423
     10421     10420     10422     10424     10421     10420     10422     10425
     10422     10425     10428     10429     10422     10425     10428     10430
     10422     10425     10428     10431     10423     10422     10425     10426
     10423     10422     10425     10427     10423     10422     10425     10428
     10424     10422     10425     10426     10424     10422     10425     10427
     10424     10422     10425     10428     10425     10428     10431     10432
     10425     10428     10431     10433     10425     10428     10431     10434
     10426     10425     10428     10429     10426     10425     10428     10430
     10426     10425     10428     10431     10427     10425     10428     10429
     10427     10425     10428     10430     10427     10425     10428     10431
     10428     10431     10434     10435     10428     10431     10434     10436
     10428     10431     10434     10437     10429     10428     10431     10432
     10429     10428     10431     10433     10429     10428     10431     10434
     10430     10428     10431     10432     10430     10428     10431     10433
     10430     10428     10431     10434     10432     10431     10434     10435
     10432     10431     10434     10436     10432     10431     10434     10437
     10433     10431     10434     10435     10433     10431     10434     10436
     10433     10431     10434     10437     10438     10441     10444     10445
     10438     10441     10444     10446     10438     10441     10444     10447
     10439     10438     10441     10442     10439     10438     10441     10443
     10439     10438     10441     10444     10440     10438     10441     10442
     10440     10438     10441     10443     10440     10438     10441     10444
     10441     10444     10447     10448     10441     10444     10447     10449
     10441     10444     10447     10450     10442     10441     10444     10445
     10442     10441     10444     10446     10442     10441     10444     10447
     10443     10441     10444     10445     10443     10441     10444     10446
     10443     10441     10444     10447     10444     10447     10450     10451
     10444     10447     10450     10452     10444     10447     10450     10453
     10445     10444     10447     10448     10445     10444     10447     10449
     10445     10444     10447     10450     10446     10444     10447     10448
     10446     10444     10447     10449     10446     10444     10447     10450
     10447     10450     10453     10454     10447     10450     10453     10455
     10447     10450     10453     10456     10448     10447     10450     10451
     10448     10447     10450     10452     10448     10447     10450     10453
     10449     10447     10450     10451     10449     10447     10450     10452
     10449     10447     10450     10453     10450     10453     10456     10457
     10450     10453     10456     10458     10450     10453     10456     10459
     10451     10450     10453     10454     10451     10450     10453     10455
     10451     10450     10453     10456     10452     10450     10453     10454
     10452     10450     10453     10455     10452     10450     10453     10456
     10453     10456     10459     10460     10453     10456     10459     10461
     10453     10456     10459     10462     10454     10453     10456     10457
     10454     10453     10456     10458     10454     10453     10456     10459
     10455     10453     10456     10457     10455     10453     10456     10458
     10455     10453     10456     10459     10456     10459     10462     10463
     10456     10459     10462     10464     10456     10459     10462     10465
     10457     10456     10459     10460     10457     10456     10459     10461
     10457     10456     10459     10462     10458     10456     10459     10460
     10458     10456     10459     10461     10458     10456     10459     10462
     10459     10462     10465     10466     10459     10462     10465     10467
     10459     10462     10465     10468     10460     10459     10462     10463
     10460     10459     10462     10464     10460     10459     10462     10465
     10461     10459     10462     10463     10461     10459     10462     10464
     10461     10459     10462     10465     10462     10465     10468     10469
     10462     10465     10468     10470     10462     10465     10468     10471
     10463     10462     10465     10466     10463     10462     10465     10467
     10463     10462     10465     10468     10464     10462     10465     10466
     10464     10462     10465     10467     10464     10462     10465     10468
     10465     10468     10471     10472     10465     10468     10471     10473
     10465     10468     10471     10474     10466     10465     10468     10469
     10466     10465     10468     10470     10466     10465     10468     10471
     10467     10465     10468     10469     10467     10465     10468     10470
     10467     10465     10468     10471     10468     10471     10474     10475
     10468     10471     10474     10476     10468     10471     10474     10477
     10469     10468     10471     10472     10469     10468     10471     10473
     10469     10468     10471     10474     10470     10468     10471     10472
     10470     10468     10471     10473     10470     10468     10471     10474
     10471     10474     10477     10478     10471     10474     10477     10479
     10471     10474     10477     10480     10472     10471     10474     10475
     10472     10471     10474     10476     10472     10471     10474     10477
     10473     10471     10474     10475     10473     10471     10474     10476
     10473     10471     10474     10477     10474     10477     10480     10481
     10474     10477     10480     10482     10474     10477     10480     10483
     10475     10474     10477     10478     10475     10474     10477     10479
     10475     10474     10477     10480     10476     10474     10477     10478
     10476     10474     10477     10479     10476     10474     10477     10480
     10477     10480     10483     10484     10477     10480     10483     10485
     10477     10480     10483     10486     10478     10477     10480     10481
     10478     10477     10480     10482     10478     10477     10480     10483
     10479     10477     10480     10481     10479     10477     10480     10482
     10479     10477     10480     10483     10481     10480     10483     10484
     10481     10480     10483     10485     10481     10480     10483     10486
     10482     10480     10483     10484     10482     10480     10483     10485
     10482     10480     10483     10486     10487     10491     10493     10494
     10487     10491     10493     10495     10487     10491     10496     10497
     10487     10491     10496     10498     10487     10491     10496     10502
     10488     10487     10491     10492     10488     10487     10491     10493
     10488     10487     10491     10496     10489     10487     10491     10492
     10489     10487     10491     10493     10489     10487     10491     10496
     10490     10487     10491     10492     10490     10487     10491     10493
     10490     10487     10491     10496     10491     10496     10502     10499
     10492     10491     10493     10494     10492     10491     10493     10495
     10492     10491     10496     10497     10492     10491     10496     10498
     10492     10491     10496     10502     10493     10491     10496     10497
     10493     10491     10496     10498     10493     10491     10496     10502
     10494     10493     10491     10496     10495     10493     10491     10496
     10496     10502     10499     10500     10496     10502     10499     10501
     10496     10502     10499     10503     10497     10496     10502     10499
     10498     10496     10502     10499     10499     10503     10504     10505
     10499     10503     10504     10506     10499     10503     10504     10507
     10500     10499     10503     10504     10501     10499     10503     10504
     10502     10499     10503     10504     10503     10504     10507     10508
     10503     10504     10507     10509     10503     10504     10507     10515
     10504     10507     10509     10510     10504     10507     10515     10516
     10504     10507     10515     10517     10504     10507     10515     10518
     10505     10504     10507     10508     10505     10504     10507     10509
     10505     10504     10507     10515     10506     10504     10507     10508
     10506     10504     10507     10509     10506     10504     10507     10515
     10507     10509     10510     10511     10507     10509     10510     10512
     10507     10515     10518     10519     10508     10507     10509     10510
     10508     10507     10515     10516     10508     10507     10515     10517
     10508     10507     10515     10518     10509     10507     10515     10516
     10509     10507     10515     10517     10509     10507     10515     10518
     10509     10510     10512     10513     10509     10510     10512     10514
     10509     10510     10512     10524     10510     10509     10507     10515
     10510     10512     10524     10525     10510     10512     10524     10526
     10510     10512     10524     10527     10511     10510     10512     10513
     10511     10510     10512     10514     10511     10510     10512     10524
     10512     10524     10527     10528     10512     10524     10527     10529
     10512     10524     10527     10530     10513     10512     10524     10525
     10513     10512     10524     10526     10513     10512     10524     10527
     10514     10512     10524     10525     10514     10512     10524     10526
     10514     10512     10524     10527     10515     10518     10519     10520
     10515     10518     10519     10521     10516     10515     10518     10519
     10517     10515     10518     10519     10518     10519     10521     10522
     10518     10519     10521     10523     10518     10519     10521     10571
     10519     10521     10571     10572     10519     10521     10571     10573
     10519     10521     10571     10574     10520     10519     10521     10522
     10520     10519     10521     10523     10520     10519     10521     10571
     10521     10571     10574     10575     10521     10571     10574     10576
     10521     10571     10574     10577     10522     10521     10571     10572
     10522     10521     10571     10573     10522     10521     10571     10574
     10523     10521     10571     10572     10523     10521     10571     10573
     10523     10521     10571     10574     10524     10527     10530     10531
     10524     10527     10530     10532     10525     10524     10527     10528
     10525     10524     10527     10529     10525     10524     10527     10530
     10526     10524     10527     10528     10526     10524     10527     10529
     10526     10524     10527     10530     10527     10530     10532     10533
     10527     10530     10532     10534     10528     10527     10530     10531
     10528     10527     10530     10532     10529     10527     10530     10531
     10529     10527     10530     10532     10530     10532     10534     10535
     10530     10532     10534     10536     10530     10532     10534     10537
     10531     10530     10532     10533     10531     10530     10532     10534
     10532     10534     10537     10538     10532     10534     10537     10539
     10533     10532     10534     10535     10533     10532     10534     10536
     10533     10532     10534     10537     10534     10537     10539     10540
     10534     10537     10539     10541     10535     10534     10537     10538
     10535     10534     10537     10539     10536     10534     10537     10538
     10536     10534     10537     10539     10537     10539     10541     10542
     10537     10539     10541     10543     10537     10539     10541     10544
     10538     10537     10539     10540     10538     10537     10539     10541
     10539     10541     10544     10545     10539     10541     10544     10546
     10540     10539     10541     10542     10540     10539     10541     10543
     10540     10539     10541     10544     10541     10544     10546     10547
     10541     10544     10546     10548     10542     10541     10544     10545
     10542     10541     10544     10546     10543     10541     10544     10545
     10543     10541     10544     10546     10544     10546     10548     10549
     10544     10546     10548     10550     10544     10546     10548     10551
     10545     10544     10546     10547     10545     10544     10546     10548
     10546     10548     10551     10552     10546     10548     10551     10553
     10547     10546     10548     10549     10547     10546     10548     10550
     10547     10546     10548     10551     10548     10551     10553     10554
     10548     10551     10553     10555     10549     10548     10551     10552
     10549     10548     10551     10553     10550     10548     10551     10552
     10550     10548     10551     10553     10551     10553     10555     10556
     10551     10553     10555     10557     10551     10553     10555     10558
     10552     10551     10553     10554     10552     10551     10553     10555
     10553     10555     10558     10559     10553     10555     10558     10560
     10553     10555     10558     10561     10554     10553     10555     10556
     10554     10553     10555     10557     10554     10553     10555     10558
     10555     10558     10561     10562     10555     10558     10561     10563
     10555     10558     10561     10564     10556     10555     10558     10559
     10556     10555     10558     10560     10556     10555     10558     10561
     10557     10555     10558     10559     10557     10555     10558     10560
     10557     10555     10558     10561     10558     10561     10564     10565
     10558     10561     10564     10566     10558     10561     10564     10567
     10559     10558     10561     10562     10559     10558     10561     10563
     10559     10558     10561     10564     10560     10558     10561     10562
     10560     10558     10561     10563     10560     10558     10561     10564
     10561     10564     10567     10568     10561     10564     10567     10569
     10561     10564     10567     10570     10562     10561     10564     10565
     10562     10561     10564     10566     10562     10561     10564     10567
     10563     10561     10564     10565     10563     10561     10564     10566
     10563     10561     10564     10567     10565     10564     10567     10568
     10565     10564     10567     10569     10565     10564     10567     10570
     10566     10564     10567     10568     10566     10564     10567     10569
     10566     10564     10567     10570     10571     10574     10577     10578
     10571     10574     10577     10579     10571     10574     10577     10580
     10572     10571     10574     10575     10572     10571     10574     10576
     10572     10571     10574     10577     10573     10571     10574     10575
     10573     10571     10574     10576     10573     10571     10574     10577
     10574     10577     10580     10581     10574     10577     10580     10582
     10574     10577     10580     10583     10575     10574     10577     10578
     10575     10574     10577     10579     10575     10574     10577     10580
     10576     10574     10577     10578     10576     10574     10577     10579
     10576     10574     10577     10580     10577     10580     10583     10584
     10577     10580     10583     10585     10577     10580     10583     10586
     10578     10577     10580     10581     10578     10577     10580     10582
     10578     10577     10580     10583     10579     10577     10580     10581
     10579     10577     10580     10582     10579     10577     10580     10583
     10580     10583     10586     10587     10580     10583     10586     10588
     10580     10583     10586     10589     10581     10580     10583     10584
     10581     10580     10583     10585     10581     10580     10583     10586
     10582     10580     10583     10584     10582     10580     10583     10585
     10582     10580     10583     10586     10583     10586     10589     10590
     10583     10586     10589     10591     10583     10586     10589     10592
     10584     10583     10586     10587     10584     10583     10586     10588
     10584     10583     10586     10589     10585     10583     10586     10587
     10585     10583     10586     10588     10585     10583     10586     10589
     10586     10589     10592     10593     10586     10589     10592     10594
     10586     10589     10592     10595     10587     10586     10589     10590
     10587     10586     10589     10591     10587     10586     10589     10592
     10588     10586     10589     10590     10588     10586     10589     10591
     10588     10586     10589     10592     10589     10592     10595     10596
     10589     10592     10595     10597     10589     10592     10595     10598
     10590     10589     10592     10593     10590     10589     10592     10594
     10590     10589     10592     10595     10591     10589     10592     10593
     10591     10589     10592     10594     10591     10589     10592     10595
     10592     10595     10598     10599     10592     10595     10598     10600
     10592     10595     10598     10601     10593     10592     10595     10596
     10593     10592     10595     10597     10593     10592     10595     10598
     10594     10592     10595     10596     10594     10592     10595     10597
     10594     10592     10595     10598     10595     10598     10601     10602
     10595     10598     10601     10603     10595     10598     10601     10604
     10596     10595     10598     10599     10596     10595     10598     10600
     10596     10595     10598     10601     10597     10595     10598     10599
     10597     10595     10598     10600     10597     10595     10598     10601
     10598     10601     10604     10605     10598     10601     10604     10606
     10598     10601     10604     10607     10599     10598     10601     10602
     10599     10598     10601     10603     10599     10598     10601     10604
     10600     10598     10601     10602     10600     10598     10601     10603
     10600     10598     10601     10604     10601     10604     10607     10608
     10601     10604     10607     10609     10601     10604     10607     10610
     10602     10601     10604     10605     10602     10601     10604     10606
     10602     10601     10604     10607     10603     10601     10604     10605
     10603     10601     10604     10606     10603     10601     10604     10607
     10604     10607     10610     10611     10604     10607     10610     10612
     10604     10607     10610     10613     10605     10604     10607     10608
     10605     10604     10607     10609     10605     10604     10607     10610
     10606     10604     10607     10608     10606     10604     10607     10609
     10606     10604     10607     10610     10607     10610     10613     10614
     10607     10610     10613     10615     10607     10610     10613     10616
     10608     10607     10610     10611     10608     10607     10610     10612
     10608     10607     10610     10613     10609     10607     10610     10611
     10609     10607     10610     10612     10609     10607     10610     10613
     10610     10613     10616     10617     10610     10613     10616     10618
     10610     10613     10616     10619     10611     10610     10613     10614
     10611     10610     10613     10615     10611     10610     10613     10616
     10612     10610     10613     10614     10612     10610     10613     10615
     10612     10610     10613     10616     10614     10613     10616     10617
     10614     10613     10616     10618     10614     10613     10616     10619
     10615     10613     10616     10617     10615     10613     10616     10618
     10615     10613     10616     10619     10620     10624     10627     10628
     10620     10624     10627     10658     10620     10666     10663     10658
     10620     10666     10663     10664     10620     10666     10663     10665
     10621     10620     10622     10623     10621     10620     10624     10625
     10621     10620     10624     10626     10621     10620     10624     10627
     10621     10620     10666     10663     10621     10620     10666     10667
     10621     10620     10666     10668     10622     10620     10624     10625
     10622     10620     10624     10626     10622     10620     10624     10627
     10622     10620     10666     10663     10622     10620     10666     10667
     10622     10620     10666     10668     10623     10622     10620     10624
     10623     10622     10620     10666     10624     10620     10666     10663
     10624     10620     10666     10667     10624     10620     10666     10668
     10624     10627     10628     10629     10624     10627     10628     10630
     10624     10627     10658     10656     10624     10627     10658     10659
     10624     10627     10658     10663     10625     10624     10620     10666
     10625     10624     10627     10628     10625     10624     10627     10658
     10626     10624     10620     10666     10626     10624     10627     10628
     10626     10624     10627     10658     10627     10624     10620     10666
     10627     10628     10630     10631     10627     10628     10630     10632
     10627     10628     10630     10633     10627     10658     10656     10633
     10627     10658     10656     10653     10627     10658     10656     10657
     10627     10658     10659     10660     10627     10658     10659     10661
     10627     10658     10659     10662     10627     10658     10663     10664
     10627     10658     10663     10665     10627     10658     10663     10666
     10628     10627     10658     10656     10628     10627     10658     10659
     10628     10627     10658     10663     10628     10630     10633     10634
     10628     10630     10633     10635     10628     10630     10633     10656
     10629     10628     10627     10658     10629     10628     10630     10631
     10629     10628     10630     10632     10629     10628     10630     10633
     10630     10628     10627     10658     10630     10633     10635     10636
     10630     10633     10635     10637     10630     10633     10635     10645
     10630     10633     10656     10653     10630     10633     10656     10657
     10630     10633     10656     10658     10631     10630     10633     10634
     10631     10630     10633     10635     10631     10630     10633     10656
     10632     10630     10633     10634     10632     10630     10633     10635
     10632     10630     10633     10656     10633     10635     10637     10638
     10633     10635     10637     10639     10633     10635     10637     10640
     10633     10635     10645     10643     10633     10635     10645     10646
     10633     10635     10645     10650     10633     10656     10653     10650
     10633     10656     10653     10654     10633     10656     10653     10655
     10633     10656     10658     10659     10633     10656     10658     10663
     10634     10633     10635     10636     10634     10633     10635     10637
     10634     10633     10635     10645     10634     10633     10656     10653
     10634     10633     10656     10657     10634     10633     10656     10658
     10635     10633     10656     10653     10635     10633     10656     10657
     10635     10633     10656     10658     10635     10637     10640     10641
     10635     10637     10640     10642     10635     10637     10640     10643
     10635     10645     10643     10640     10635     10645     10643     10644
     10635     10645     10643     10669     10635     10645     10646     10647
     10635     10645     10646     10648     10635     10645     10646     10649
     10635     10645     10650     10651     10635     10645     10650     10652
     10635     10645     10650     10653     10636     10635     10633     10656
     10636     10635     10637     10638     10636     10635     10637     10639
     10636     10635     10637     10640     10636     10635     10645     10643
     10636     10635     10645     10646     10636     10635     10645     10650
     10637     10635     10633     10656     10637     10635     10645     10643
     10637     10635     10645     10646     10637     10635     10645     10650
     10637     10640     10643     10644     10637     10640     10643     10645
     10637     10640     10643     10669     10638     10637     10635     10645
     10638     10637     10640     10641     10638     10637     10640     10642
     10638     10637     10640     10643     10639     10637     10635     10645
     10639     10637     10640     10641     10639     10637     10640     10642
     10639     10637     10640     10643     10640     10637     10635     10645
     10640     10643     10645     10646     10640     10643     10645     10650
     10640     10643     10669     10670     10640     10643     10669     10671
     10640     10643     10669     10675     10641     10640     10643     10644
     10641     10640     10643     10645     10641     10640     10643     10669
     10642     10640     10643     10644     10642     10640     10643     10645
     10642     10640     10643     10669     10643     10645     10646     10647
     10643     10645     10646     10648     10643     10645     10646     10649
     10643     10645     10650     10651     10643     10645     10650     10652
     10643     10645     10650     10653     10643     10669     10671     10672
     10643     10669     10671     10673     10643     10669     10671     10674
     10643     10669     10675     10676     10643     10669     10675     10677
     10643     10669     10675     10678     10644     10643     10645     10646
     10644     10643     10645     10650     10644     10643     10669     10670
     10644     10643     10669     10671     10644     10643     10669     10675
     10645     10635     10633     10656     10645     10643     10669     10670
     10645     10643     10669     10671     10645     10643     10669     10675
     10645     10650     10653     10654     10645     10650     10653     10655
     10645     10650     10653     10656     10646     10645     10643     10669
     10646     10645     10650     10651     10646     10645     10650     10652
     10646     10645     10650     10653     10647     10646     10645     10650
     10648     10646     10645     10650     10649     10646     10645     10650
     10650     10645     10643     10669     10650     10653     10656     10657
     10650     10653     10656     10658     10651     10650     10653     10654
     10651     10650     10653     10655     10651     10650     10653     10656
     10652     10650     10653     10654     10652     10650     10653     10655
     10652     10650     10653     10656     10653     10656     10658     10659
     10653     10656     10658     10663     10654     10653     10656     10657
     10654     10653     10656     10658     10655     10653     10656     10657
     10655     10653     10656     10658     10656     10658     10659     10660
     10656     10658     10659     10661     10656     10658     10659     10662
     10656     10658     10663     10664     10656     10658     10663     10665
     10656     10658     10663     10666     10657     10656     10658     10659
     10657     10656     10658     10663     10658     10663     10666     10667
     10658     10663     10666     10668     10659     10658     10663     10664
     10659     10658     10663     10665     10659     10658     10663     10666
     10660     10659     10658     10663     10661     10659     10658     10663
     10662     10659     10658     10663     10664     10663     10666     10667
     10664     10663     10666     10668     10665     10663     10666     10667
     10665     10663     10666     10668     10669     10675     10678     10679
     10669     10675     10678     10680     10669     10675     10678     10681
     10670     10669     10671     10672     10670     10669     10671     10673
     10670     10669     10671     10674     10670     10669     10675     10676
     10670     10669     10675     10677     10670     10669     10675     10678
     10671     10669     10675     10676     10671     10669     10675     10677
     10671     10669     10675     10678     10672     10671     10669     10675
     10673     10671     10669     10675     10674     10671     10669     10675
     10675     10678     10681     10682     10675     10678     10681     10683
     10675     10678     10681     10684     10676     10675     10678     10679
     10676     10675     10678     10680     10676     10675     10678     10681
     10677     10675     10678     10679     10677     10675     10678     10680
     10677     10675     10678     10681     10678     10681     10684     10685
     10678     10681     10684     10686     10678     10681     10684     10690
     10679     10678     10681     10682     10679     10678     10681     10683
     10679     10678     10681     10684     10680     10678     10681     10682
     10680     10678     10681     10683     10680     10678     10681     10684
     10681     10684     10686     10687     10681     10684     10686     10688
     10681     10684     10686     10689     10681     10684     10690     10691
     10681     10684     10690     10692     10681     10684     10690     10693
     10682     10681     10684     10685     10682     10681     10684     10686
     10682     10681     10684     10690     10683     10681     10684     10685
     10683     10681     10684     10686     10683     10681     10684     10690
     10685     10684     10686     10687     10685     10684     10686     10688
     10685     10684     10686     10689     10685     10684     10690     10691
     10685     10684     10690     10692     10685     10684     10690     10693
     10686     10684     10690     10691     10686     10684     10690     10692
     10686     10684     10690     10693     10687     10686     10684     10690
     10688     10686     10684     10690     10689     10686     10684     10690
     10694     10698     10701     10702     10694     10698     10701     10732
     10694     10740     10737     10732     10694     10740     10737     10738
     10694     10740     10737     10739     10695     10694     10696     10697
     10695     10694     10698     10699     10695     10694     10698     10700
     10695     10694     10698     10701     10695     10694     10740     10737
     10695     10694     10740     10741     10695     10694     10740     10742
     10696     10694     10698     10699     10696     10694     10698     10700
     10696     10694     10698     10701     10696     10694     10740     10737
     10696     10694     10740     10741     10696     10694     10740     10742
     10697     10696     10694     10698     10697     10696     10694     10740
     10698     10694     10740     10737     10698     10694     10740     10741
     10698     10694     10740     10742     10698     10701     10702     10703
     10698     10701     10702     10704     10698     10701     10732     10730
     10698     10701     10732     10733     10698     10701     10732     10737
     10699     10698     10694     10740     10699     10698     10701     10702
     10699     10698     10701     10732     10700     10698     10694     10740
     10700     10698     10701     10702     10700     10698     10701     10732
     10701     10698     10694     10740     10701     10702     10704     10705
     10701     10702     10704     10706     10701     10702     10704     10707
     10701     10732     10730     10707     10701     10732     10730     10727
     10701     10732     10730     10731     10701     10732     10733     10734
     10701     10732     10733     10735     10701     10732     10733     10736
     10701     10732     10737     10738     10701     10732     10737     10739
     10701     10732     10737     10740     10702     10701     10732     10730
     10702     10701     10732     10733     10702     10701     10732     10737
     10702     10704     10707     10708     10702     10704     10707     10709
     10702     10704     10707     10730     10703     10702     10701     10732
     10703     10702     10704     10705     10703     10702     10704     10706
     10703     10702     10704     10707     10704     10702     10701     10732
     10704     10707     10709     10710     10704     10707     10709     10711
     10704     10707     10709     10719     10704     10707     10730     10727
     10704     10707     10730     10731     10704     10707     10730     10732
     10705     10704     10707     10708     10705     10704     10707     10709
     10705     10704     10707     10730     10706     10704     10707     10708
     10706     10704     10707     10709     10706     10704     10707     10730
     10707     10709     10711     10712     10707     10709     10711     10713
     10707     10709     10711     10714     10707     10709     10719     10717
     10707     10709     10719     10720     10707     10709     10719     10724
     10707     10730     10727     10724     10707     10730     10727     10728
     10707     10730     10727     10729     10707     10730     10732     10733
     10707     10730     10732     10737     10708     10707     10709     10710
     10708     10707     10709     10711     10708     10707     10709     10719
     10708     10707     10730     10727     10708     10707     10730     10731
     10708     10707     10730     10732     10709     10707     10730     10727
     10709     10707     10730     10731     10709     10707     10730     10732
     10709     10711     10714     10715     10709     10711     10714     10716
     10709     10711     10714     10717     10709     10719     10717     10714
     10709     10719     10717     10718     10709     10719     10717     10743
     10709     10719     10720     10721     10709     10719     10720     10722
     10709     10719     10720     10723     10709     10719     10724     10725
     10709     10719     10724     10726     10709     10719     10724     10727
     10710     10709     10707     10730     10710     10709     10711     10712
     10710     10709     10711     10713     10710     10709     10711     10714
     10710     10709     10719     10717     10710     10709     10719     10720
     10710     10709     10719     10724     10711     10709     10707     10730
     10711     10709     10719     10717     10711     10709     10719     10720
     10711     10709     10719     10724     10711     10714     10717     10718
     10711     10714     10717     10719     10711     10714     10717     10743
     10712     10711     10709     10719     10712     10711     10714     10715
     10712     10711     10714     10716     10712     10711     10714     10717
     10713     10711     10709     10719     10713     10711     10714     10715
     10713     10711     10714     10716     10713     10711     10714     10717
     10714     10711     10709     10719     10714     10717     10719     10720
     10714     10717     10719     10724     10714     10717     10743     10744
     10714     10717     10743     10745     10714     10717     10743     10749
     10715     10714     10717     10718     10715     10714     10717     10719
     10715     10714     10717     10743     10716     10714     10717     10718
     10716     10714     10717     10719     10716     10714     10717     10743
     10717     10719     10720     10721     10717     10719     10720     10722
     10717     10719     10720     10723     10717     10719     10724     10725
     10717     10719     10724     10726     10717     10719     10724     10727
     10717     10743     10745     10746     10717     10743     10745     10747
     10717     10743     10745     10748     10717     10743     10749     10750
     10717     10743     10749     10751     10717     10743     10749     10752
     10718     10717     10719     10720     10718     10717     10719     10724
     10718     10717     10743     10744     10718     10717     10743     10745
     10718     10717     10743     10749     10719     10709     10707     10730
     10719     10717     10743     10744     10719     10717     10743     10745
     10719     10717     10743     10749     10719     10724     10727     10728
     10719     10724     10727     10729     10719     10724     10727     10730
     10720     10719     10717     10743     10720     10719     10724     10725
     10720     10719     10724     10726     10720     10719     10724     10727
     10721     10720     10719     10724     10722     10720     10719     10724
     10723     10720     10719     10724     10724     10719     10717     10743
     10724     10727     10730     10731     10724     10727     10730     10732
     10725     10724     10727     10728     10725     10724     10727     10729
     10725     10724     10727     10730     10726     10724     10727     10728
     10726     10724     10727     10729     10726     10724     10727     10730
     10727     10730     10732     10733     10727     10730     10732     10737
     10728     10727     10730     10731     10728     10727     10730     10732
     10729     10727     10730     10731     10729     10727     10730     10732
     10730     10732     10733     10734     10730     10732     10733     10735
     10730     10732     10733     10736     10730     10732     10737     10738
     10730     10732     10737     10739     10730     10732     10737     10740
     10731     10730     10732     10733     10731     10730     10732     10737
     10732     10737     10740     10741     10732     10737     10740     10742
     10733     10732     10737     10738     10733     10732     10737     10739
     10733     10732     10737     10740     10734     10733     10732     10737
     10735     10733     10732     10737     10736     10733     10732     10737
     10738     10737     10740     10741     10738     10737     10740     10742
     10739     10737     10740     10741     10739     10737     10740     10742
     10743     10749     10752     10753     10743     10749     10752     10754
     10743     10749     10752     10755     10744     10743     10745     10746
     10744     10743     10745     10747     10744     10743     10745     10748
     10744     10743     10749     10750     10744     10743     10749     10751
     10744     10743     10749     10752     10745     10743     10749     10750
     10745     10743     10749     10751     10745     10743     10749     10752
     10746     10745     10743     10749     10747     10745     10743     10749
     10748     10745     10743     10749     10749     10752     10755     10756
     10749     10752     10755     10757     10749     10752     10755     10758
     10750     10749     10752     10753     10750     10749     10752     10754
     10750     10749     10752     10755     10751     10749     10752     10753
     10751     10749     10752     10754     10751     10749     10752     10755
     10752     10755     10758     10759     10752     10755     10758     10760
     10752     10755     10758     10764     10753     10752     10755     10756
     10753     10752     10755     10757     10753     10752     10755     10758
     10754     10752     10755     10756     10754     10752     10755     10757
     10754     10752     10755     10758     10755     10758     10760     10761
     10755     10758     10760     10762     10755     10758     10760     10763
     10755     10758     10764     10765     10755     10758     10764     10766
     10755     10758     10764     10767     10756     10755     10758     10759
     10756     10755     10758     10760     10756     10755     10758     10764
     10757     10755     10758     10759     10757     10755     10758     10760
     10757     10755     10758     10764     10759     10758     10760     10761
     10759     10758     10760     10762     10759     10758     10760     10763
     10759     10758     10764     10765     10759     10758     10764     10766
     10759     10758     10764     10767     10760     10758     10764     10765
     10760     10758     10764     10766     10760     10758     10764     10767
     10761     10760     10758     10764     10762     10760     10758     10764
     10763     10760     10758     10764     10768     10772     10775     10776
     10768     10772     10775     10777     10768     10772     10775     10781
     10769     10768     10772     10773     10769     10768     10772     10774
     10769     10768     10772     10775     10770     10768     10772     10773
     10770     10768     10772     10774     10770     10768     10772     10775
     10771     10768     10772     10773     10771     10768     10772     10774
     10771     10768     10772     10775     10772     10775     10781     10778
     10773     10772     10775     10776     10773     10772     10775     10777
     10773     10772     10775     10781     10774     10772     10775     10776
     10774     10772     10775     10777     10774     10772     10775     10781
     10775     10781     10778     10779     10775     10781     10778     10780
     10775     10781     10778     10782     10776     10775     10781     10778
     10777     10775     10781     10778     10778     10782     10783     10784
     10778     10782     10783     10785     10778     10782     10783     10786
     10779     10778     10782     10783     10780     10778     10782     10783
     10781     10778     10782     10783     10782     10783     10786     10787
     10782     10783     10786     10788     10782     10783     10786     10794
     10783     10786     10788     10789     10783     10786     10794     10795
     10783     10786     10794     10796     10783     10786     10794     10797
     10784     10783     10786     10787     10784     10783     10786     10788
     10784     10783     10786     10794     10785     10783     10786     10787
     10785     10783     10786     10788     10785     10783     10786     10794
     10786     10788     10789     10790     10786     10788     10789     10791
     10786     10794     10797     10798     10787     10786     10788     10789
     10787     10786     10794     10795     10787     10786     10794     10796
     10787     10786     10794     10797     10788     10786     10794     10795
     10788     10786     10794     10796     10788     10786     10794     10797
     10788     10789     10791     10792     10788     10789     10791     10793
     10788     10789     10791     10803     10789     10788     10786     10794
     10789     10791     10803     10804     10789     10791     10803     10805
     10789     10791     10803     10806     10790     10789     10791     10792
     10790     10789     10791     10793     10790     10789     10791     10803
     10791     10803     10806     10807     10791     10803     10806     10808
     10791     10803     10806     10809     10792     10791     10803     10804
     10792     10791     10803     10805     10792     10791     10803     10806
     10793     10791     10803     10804     10793     10791     10803     10805
     10793     10791     10803     10806     10794     10797     10798     10799
     10794     10797     10798     10800     10795     10794     10797     10798
     10796     10794     10797     10798     10797     10798     10800     10801
     10797     10798     10800     10802     10797     10798     10800     10850
     10798     10800     10850     10851     10798     10800     10850     10852
     10798     10800     10850     10853     10799     10798     10800     10801
     10799     10798     10800     10802     10799     10798     10800     10850
     10800     10850     10853     10854     10800     10850     10853     10855
     10800     10850     10853     10856     10801     10800     10850     10851
     10801     10800     10850     10852     10801     10800     10850     10853
     10802     10800     10850     10851     10802     10800     10850     10852
     10802     10800     10850     10853     10803     10806     10809     10810
     10803     10806     10809     10811     10803     10806     10809     10812
     10804     10803     10806     10807     10804     10803     10806     10808
     10804     10803     10806     10809     10805     10803     10806     10807
     10805     10803     10806     10808     10805     10803     10806     10809
     10806     10809     10812     10813     10806     10809     10812     10814
     10806     10809     10812     10815     10807     10806     10809     10810
     10807     10806     10809     10811     10807     10806     10809     10812
     10808     10806     10809     10810     10808     10806     10809     10811
     10808     10806     10809     10812     10809     10812     10815     10816
     10809     10812     10815     10817     10809     10812     10815     10818
     10810     10809     10812     10813     10810     10809     10812     10814
     10810     10809     10812     10815     10811     10809     10812     10813
     10811     10809     10812     10814     10811     10809     10812     10815
     10812     10815     10818     10819     10812     10815     10818     10820
     10812     10815     10818     10821     10813     10812     10815     10816
     10813     10812     10815     10817     10813     10812     10815     10818
     10814     10812     10815     10816     10814     10812     10815     10817
     10814     10812     10815     10818     10815     10818     10821     10822
     10815     10818     10821     10823     10816     10815     10818     10819
     10816     10815     10818     10820     10816     10815     10818     10821
     10817     10815     10818     10819     10817     10815     10818     10820
     10817     10815     10818     10821     10818     10821     10823     10824
     10818     10821     10823     10825     10819     10818     10821     10822
     10819     10818     10821     10823     10820     10818     10821     10822
     10820     10818     10821     10823     10821     10823     10825     10826
     10821     10823     10825     10827     10821     10823     10825     10828
     10822     10821     10823     10824     10822     10821     10823     10825
     10823     10825     10828     10829     10823     10825     10828     10830
     10823     10825     10828     10831     10824     10823     10825     10826
     10824     10823     10825     10827     10824     10823     10825     10828
     10825     10828     10831     10832     10825     10828     10831     10833
     10825     10828     10831     10834     10826     10825     10828     10829
     10826     10825     10828     10830     10826     10825     10828     10831
     10827     10825     10828     10829     10827     10825     10828     10830
     10827     10825     10828     10831     10828     10831     10834     10835
     10828     10831     10834     10836     10828     10831     10834     10837
     10829     10828     10831     10832     10829     10828     10831     10833
     10829     10828     10831     10834     10830     10828     10831     10832
     10830     10828     10831     10833     10830     10828     10831     10834
     10831     10834     10837     10838     10831     10834     10837     10839
     10831     10834     10837     10840     10832     10831     10834     10835
     10832     10831     10834     10836     10832     10831     10834     10837
     10833     10831     10834     10835     10833     10831     10834     10836
     10833     10831     10834     10837     10834     10837     10840     10841
     10834     10837     10840     10842     10834     10837     10840     10843
     10835     10834     10837     10838     10835     10834     10837     10839
     10835     10834     10837     10840     10836     10834     10837     10838
     10836     10834     10837     10839     10836     10834     10837     10840
     10837     10840     10843     10844     10837     10840     10843     10845
     10837     10840     10843     10846     10838     10837     10840     10841
     10838     10837     10840     10842     10838     10837     10840     10843
     10839     10837     10840     10841     10839     10837     10840     10842
     10839     10837     10840     10843     10840     10843     10846     10847
     10840     10843     10846     10848     10840     10843     10846     10849
     10841     10840     10843     10844     10841     10840     10843     10845
     10841     10840     10843     10846     10842     10840     10843     10844
     10842     10840     10843     10845     10842     10840     10843     10846
     10844     10843     10846     10847     10844     10843     10846     10848
     10844     10843     10846     10849     10845     10843     10846     10847
     10845     10843     10846     10848     10845     10843     10846     10849
     10850     10853     10856     10857     10850     10853     10856     10858
     10850     10853     10856     10859     10851     10850     10853     10854
     10851     10850     10853     10855     10851     10850     10853     10856
     10852     10850     10853     10854     10852     10850     10853     10855
     10852     10850     10853     10856     10853     10856     10859     10860
     10853     10856     10859     10861     10853     10856     10859     10862
     10854     10853     10856     10857     10854     10853     10856     10858
     10854     10853     10856     10859     10855     10853     10856     10857
     10855     10853     10856     10858     10855     10853     10856     10859
     10856     10859     10862     10863     10856     10859     10862     10864
     10856     10859     10862     10865     10857     10856     10859     10860
     10857     10856     10859     10861     10857     10856     10859     10862
     10858     10856     10859     10860     10858     10856     10859     10861
     10858     10856     10859     10862     10859     10862     10865     10866
     10859     10862     10865     10867     10859     10862     10865     10868
     10860     10859     10862     10863     10860     10859     10862     10864
     10860     10859     10862     10865     10861     10859     10862     10863
     10861     10859     10862     10864     10861     10859     10862     10865
     10862     10865     10868     10869     10862     10865     10868     10870
     10862     10865     10868     10871     10863     10862     10865     10866
     10863     10862     10865     10867     10863     10862     10865     10868
     10864     10862     10865     10866     10864     10862     10865     10867
     10864     10862     10865     10868     10865     10868     10871     10872
     10865     10868     10871     10873     10865     10868     10871     10874
     10866     10865     10868     10869     10866     10865     10868     10870
     10866     10865     10868     10871     10867     10865     10868     10869
     10867     10865     10868     10870     10867     10865     10868     10871
     10868     10871     10874     10875     10868     10871     10874     10876
     10868     10871     10874     10877     10869     10868     10871     10872
     10869     10868     10871     10873     10869     10868     10871     10874
     10870     10868     10871     10872     10870     10868     10871     10873
     10870     10868     10871     10874     10871     10874     10877     10878
     10871     10874     10877     10879     10871     10874     10877     10880
     10872     10871     10874     10875     10872     10871     10874     10876
     10872     10871     10874     10877     10873     10871     10874     10875
     10873     10871     10874     10876     10873     10871     10874     10877
     10874     10877     10880     10881     10874     10877     10880     10882
     10874     10877     10880     10883     10875     10874     10877     10878
     10875     10874     10877     10879     10875     10874     10877     10880
     10876     10874     10877     10878     10876     10874     10877     10879
     10876     10874     10877     10880     10877     10880     10883     10884
     10877     10880     10883     10885     10877     10880     10883     10886
     10878     10877     10880     10881     10878     10877     10880     10882
     10878     10877     10880     10883     10879     10877     10880     10881
     10879     10877     10880     10882     10879     10877     10880     10883
     10880     10883     10886     10887     10880     10883     10886     10888
     10880     10883     10886     10889     10881     10880     10883     10884
     10881     10880     10883     10885     10881     10880     10883     10886
     10882     10880     10883     10884     10882     10880     10883     10885
     10882     10880     10883     10886     10883     10886     10889     10890
     10883     10886     10889     10891     10883     10886     10889     10892
     10884     10883     10886     10887     10884     10883     10886     10888
     10884     10883     10886     10889     10885     10883     10886     10887
     10885     10883     10886     10888     10885     10883     10886     10889
     10886     10889     10892     10893     10886     10889     10892     10894
     10886     10889     10892     10895     10887     10886     10889     10890
     10887     10886     10889     10891     10887     10886     10889     10892
     10888     10886     10889     10890     10888     10886     10889     10891
     10888     10886     10889     10892     10889     10892     10895     10896
     10889     10892     10895     10897     10889     10892     10895     10898
     10890     10889     10892     10893     10890     10889     10892     10894
     10890     10889     10892     10895     10891     10889     10892     10893
     10891     10889     10892     10894     10891     10889     10892     10895
     10893     10892     10895     10896     10893     10892     10895     10897
     10893     10892     10895     10898     10894     10892     10895     10896
     10894     10892     10895     10897     10894     10892     10895     10898
     10899     10912     10915     10916     10899     10912     10915     10917
     10899     10912     10915     10922     10900     10899     10904     10905
     10900     10899     10904     10906     10900     10899     10904     10907
     10900     10899     10908     10909     10900     10899     10908     10910
     10900     10899     10908     10911     10900     10899     10912     10913
     10900     10899     10912     10914     10900     10899     10912     10915
     10901     10900     10899     10904     10901     10900     10899     10908
     10901     10900     10899     10912     10902     10900     10899     10904
     10902     10900     10899     10908     10902     10900     10899     10912
     10903     10900     10899     10904     10903     10900     10899     10908
     10903     10900     10899     10912     10904     10899     10908     10909
     10904     10899     10908     10910     10904     10899     10908     10911
     10904     10899     10912     10913     10904     10899     10912     10914
     10904     10899     10912     10915     10905     10904     10899     10908
     10905     10904     10899     10912     10906     10904     10899     10908
     10906     10904     10899     10912     10907     10904     10899     10908
     10907     10904     10899     10912     10908     10899     10912     10913
     10908     10899     10912     10914     10908     10899     10912     10915
     10909     10908     10899     10912     10910     10908     10899     10912
     10911     10908     10899     10912     10912     10915     10922     10918
     10913     10912     10915     10916     10913     10912     10915     10917
     10913     10912     10915     10922     10914     10912     10915     10916
     10914     10912     10915     10917     10914     10912     10915     10922
     10915     10922     10918     10919     10915     10922     10918     10920
     10915     10922     10918     10921     10916     10915     10922     10918
     10917     10915     10922     10918     10918     10921     10923     10924
     10918     10921     10923     10925     10918     10921     10923     10928
     10919     10918     10921     10923     10920     10918     10921     10923
     10921     10923     10928     10926     10921     10923     10928     10929
     10921     10923     10928     10930     10922     10918     10921     10923
     10923     10928     10926     10927     10923     10928     10926     10978
     10923     10928     10930     10931     10923     10928     10930     10932
     10923     10928     10930     10934     10924     10923     10928     10926
     10924     10923     10928     10929     10924     10923     10928     10930
     10925     10923     10928     10926     10925     10923     10928     10929
     10925     10923     10928     10930     10926     10928     10930     10931
     10926     10928     10930     10932     10926     10928     10930     10934
     10926     10978     10980     10981     10926     10978     10980     10982
     10926     10978     10980     10983     10927     10926     10928     10929
     10927     10926     10928     10930     10927     10926     10978     10979
     10927     10926     10978     10980     10928     10926     10978     10979
     10928     10926     10978     10980     10928     10930     10932     10933
     10928     10930     10934     10935     10928     10930     10934     10936
     10929     10928     10926     10978     10929     10928     10930     10931
     10929     10928     10930     10932     10929     10928     10930     10934
     10930     10928     10926     10978     10930     10934     10936     10937
     10930     10934     10936     10938     10931     10930     10932     10933
     10931     10930     10934     10935     10931     10930     10934     10936
     10932     10930     10934     10935     10932     10930     10934     10936
     10933     10932     10930     10934     10934     10936     10938     10939
     10934     10936     10938     10940     10934     10936     10938     10941
     10935     10934     10936     10937     10935     10934     10936     10938
     10936     10938     10941     10942     10936     10938     10941     10943
     10936     10938     10941     10944     10937     10936     10938     10939
     10937     10936     10938     10940     10937     10936     10938     10941
     10938     10941     10944     10945     10938     10941     10944     10946
     10938     10941     10944     10947     10939     10938     10941     10942
     10939     10938     10941     10943     10939     10938     10941     10944
     10940     10938     10941     10942     10940     10938     10941     10943
     10940     10938     10941     10944     10941     10944     10947     10948
     10941     10944     10947     10949     10941     10944     10947     10950
     10942     10941     10944     10945     10942     10941     10944     10946
     10942     10941     10944     10947     10943     10941     10944     10945
     10943     10941     10944     10946     10943     10941     10944     10947
     10944     10947     10950     10951     10944     10947     10950     10952
     10944     10947     10950     10953     10945     10944     10947     10948
     10945     10944     10947     10949     10945     10944     10947     10950
     10946     10944     10947     10948     10946     10944     10947     10949
     10946     10944     10947     10950     10947     10950     10953     10954
     10947     10950     10953     10955     10947     10950     10953     10956
     10948     10947     10950     10951     10948     10947     10950     10952
     10948     10947     10950     10953     10949     10947     10950     10951
     10949     10947     10950     10952     10949     10947     10950     10953
     10950     10953     10956     10957     10950     10953     10956     10958
     10950     10953     10956     10959     10951     10950     10953     10954
     10951     10950     10953     10955     10951     10950     10953     10956
     10952     10950     10953     10954     10952     10950     10953     10955
     10952     10950     10953     10956     10953     10956     10959     10960
     10953     10956     10959     10961     10953     10956     10959     10962
     10954     10953     10956     10957     10954     10953     10956     10958
     10954     10953     10956     10959     10955     10953     10956     10957
     10955     10953     10956     10958     10955     10953     10956     10959
     10956     10959     10962     10963     10956     10959     10962     10964
     10956     10959     10962     10965     10957     10956     10959     10960
     10957     10956     10959     10961     10957     10956     10959     10962
     10958     10956     10959     10960     10958     10956     10959     10961
     10958     10956     10959     10962     10959     10962     10965     10966
     10959     10962     10965     10967     10959     10962     10965     10968
     10960     10959     10962     10963     10960     10959     10962     10964
     10960     10959     10962     10965     10961     10959     10962     10963
     10961     10959     10962     10964     10961     10959     10962     10965
     10962     10965     10968     10969     10962     10965     10968     10970
     10962     10965     10968     10971     10963     10962     10965     10966
     10963     10962     10965     10967     10963     10962     10965     10968
     10964     10962     10965     10966     10964     10962     10965     10967
     10964     10962     10965     10968     10965     10968     10971     10972
     10965     10968     10971     10973     10965     10968     10971     10974
     10966     10965     10968     10969     10966     10965     10968     10970
     10966     10965     10968     10971     10967     10965     10968     10969
     10967     10965     10968     10970     10967     10965     10968     10971
     10968     10971     10974     10975     10968     10971     10974     10976
     10968     10971     10974     10977     10969     10968     10971     10972
     10969     10968     10971     10973     10969     10968     10971     10974
     10970     10968     10971     10972     10970     10968     10971     10973
     10970     10968     10971     10974     10972     10971     10974     10975
     10972     10971     10974     10976     10972     10971     10974     10977
     10973     10971     10974     10975     10973     10971     10974     10976
     10973     10971     10974     10977     10978     10980     10983     10984
     10978     10980     10983     10985     10978     10980     10983     10986
     10979     10978     10980     10981     10979     10978     10980     10982
     10979     10978     10980     10983     10980     10983     10986     10987
     10980     10983     10986     10988     10980     10983     10986     10989
     10981     10980     10983     10984     10981     10980     10983     10985
     10981     10980     10983     10986     10982     10980     10983     10984
     10982     10980     10983     10985     10982     10980     10983     10986
     10983     10986     10989     10990     10983     10986     10989     10991
     10983     10986     10989     10992     10984     10983     10986     10987
     10984     10983     10986     10988     10984     10983     10986     10989
     10985     10983     10986     10987     10985     10983     10986     10988
     10985     10983     10986     10989     10986     10989     10992     10993
     10986     10989     10992     10994     10986     10989     10992     10995
     10987     10986     10989     10990     10987     10986     10989     10991
     10987     10986     10989     10992     10988     10986     10989     10990
     10988     10986     10989     10991     10988     10986     10989     10992
     10989     10992     10995     10996     10989     10992     10995     10997
     10989     10992     10995     10998     10990     10989     10992     10993
     10990     10989     10992     10994     10990     10989     10992     10995
     10991     10989     10992     10993     10991     10989     10992     10994
     10991     10989     10992     10995     10992     10995     10998     10999
     10992     10995     10998     11000     10992     10995     10998     11001
     10993     10992     10995     10996     10993     10992     10995     10997
     10993     10992     10995     10998     10994     10992     10995     10996
     10994     10992     10995     10997     10994     10992     10995     10998
     10995     10998     11001     11002     10995     10998     11001     11003
     10996     10995     10998     10999     10996     10995     10998     11000
     10996     10995     10998     11001     10997     10995     10998     10999
     10997     10995     10998     11000     10997     10995     10998     11001
     10998     11001     11003     11004     10998     11001     11003     11005
     10999     10998     11001     11002     10999     10998     11001     11003
     11000     10998     11001     11002     11000     10998     11001     11003
     11001     11003     11005     11006     11001     11003     11005     11007
     11001     11003     11005     11008     11002     11001     11003     11004
     11002     11001     11003     11005     11003     11005     11008     11009
     11003     11005     11008     11010     11003     11005     11008     11011
     11004     11003     11005     11006     11004     11003     11005     11007
     11004     11003     11005     11008     11005     11008     11011     11012
     11005     11008     11011     11013     11005     11008     11011     11014
     11006     11005     11008     11009     11006     11005     11008     11010
     11006     11005     11008     11011     11007     11005     11008     11009
     11007     11005     11008     11010     11007     11005     11008     11011
     11008     11011     11014     11015     11008     11011     11014     11016
     11008     11011     11014     11017     11009     11008     11011     11012
     11009     11008     11011     11013     11009     11008     11011     11014
     11010     11008     11011     11012     11010     11008     11011     11013
     11010     11008     11011     11014     11011     11014     11017     11018
     11011     11014     11017     11019     11011     11014     11017     11020
     11012     11011     11014     11015     11012     11011     11014     11016
     11012     11011     11014     11017     11013     11011     11014     11015
     11013     11011     11014     11016     11013     11011     11014     11017
     11014     11017     11020     11021     11014     11017     11020     11022
     11014     11017     11020     11023     11015     11014     11017     11018
     11015     11014     11017     11019     11015     11014     11017     11020
     11016     11014     11017     11018     11016     11014     11017     11019
     11016     11014     11017     11020     11017     11020     11023     11024
     11017     11020     11023     11025     11017     11020     11023     11026
     11018     11017     11020     11021     11018     11017     11020     11022
     11018     11017     11020     11023     11019     11017     11020     11021
     11019     11017     11020     11022     11019     11017     11020     11023
     11020     11023     11026     11027     11020     11023     11026     11028
     11020     11023     11026     11029     11021     11020     11023     11024
     11021     11020     11023     11025     11021     11020     11023     11026
     11022     11020     11023     11024     11022     11020     11023     11025
     11022     11020     11023     11026     11024     11023     11026     11027
     11024     11023     11026     11028     11024     11023     11026     11029
     11025     11023     11026     11027     11025     11023     11026     11028
     11025     11023     11026     11029     11030     11043     11046     11047
     11030     11043     11046     11048     11030     11043     11046     11053
     11031     11030     11035     11036     11031     11030     11035     11037
     11031     11030     11035     11038     11031     11030     11039     11040
     11031     11030     11039     11041     11031     11030     11039     11042
     11031     11030     11043     11044     11031     11030     11043     11045
     11031     11030     11043     11046     11032     11031     11030     11035
     11032     11031     11030     11039     11032     11031     11030     11043
     11033     11031     11030     11035     11033     11031     11030     11039
     11033     11031     11030     11043     11034     11031     11030     11035
     11034     11031     11030     11039     11034     11031     11030     11043
     11035     11030     11039     11040     11035     11030     11039     11041
     11035     11030     11039     11042     11035     11030     11043     11044
     11035     11030     11043     11045     11035     11030     11043     11046
     11036     11035     11030     11039     11036     11035     11030     11043
     11037     11035     11030     11039     11037     11035     11030     11043
     11038     11035     11030     11039     11038     11035     11030     11043
     11039     11030     11043     11044     11039     11030     11043     11045
     11039     11030     11043     11046     11040     11039     11030     11043
     11041     11039     11030     11043     11042     11039     11030     11043
     11043     11046     11053     11049     11044     11043     11046     11047
     11044     11043     11046     11048     11044     11043     11046     11053
     11045     11043     11046     11047     11045     11043     11046     11048
     11045     11043     11046     11053     11046     11053     11049     11050
     11046     11053     11049     11051     11046     11053     11049     11052
     11047     11046     11053     11049     11048     11046     11053     11049
     11049     11052     11054     11055     11049     11052     11054     11056
     11049     11052     11054     11059     11050     11049     11052     11054
     11051     11049     11052     11054     11052     11054     11059     11057
     11052     11054     11059     11060     11052     11054     11059     11061
     11053     11049     11052     11054     11054     11059     11057     11058
     11054     11059     11057     11109     11054     11059     11061     11062
     11054     11059     11061     11063     11054     11059     11061     11065
     11055     11054     11059     11057     11055     11054     11059     11060
     11055     11054     11059     11061     11056     11054     11059     11057
     11056     11054     11059     11060     11056     11054     11059     11061
     11057     11059     11061     11062     11057     11059     11061     11063
     11057     11059     11061     11065     11057     11109     11111     11112
     11057     11109     11111     11113     11057     11109     11111     11114
     11058     11057     11059     11060     11058     11057     11059     11061
     11058     11057     11109     11110     11058     11057     11109     11111
     11059     11057     11109     11110     11059     11057     11109     11111
     11059     11061     11063     11064     11059     11061     11065     11066
     11059     11061     11065     11067     11060     11059     11057     11109
     11060     11059     11061     11062     11060     11059     11061     11063
     11060     11059     11061     11065     11061     11059     11057     11109
     11061     11065     11067     11068     11061     11065     11067     11069
     11062     11061     11063     11064     11062     11061     11065     11066
     11062     11061     11065     11067     11063     11061     11065     11066
     11063     11061     11065     11067     11064     11063     11061     11065
     11065     11067     11069     11070     11065     11067     11069     11071
     11065     11067     11069     11072     11066     11065     11067     11068
     11066     11065     11067     11069     11067     11069     11072     11073
     11067     11069     11072     11074     11067     11069     11072     11075
     11068     11067     11069     11070     11068     11067     11069     11071
     11068     11067     11069     11072     11069     11072     11075     11076
     11069     11072     11075     11077     11069     11072     11075     11078
     11070     11069     11072     11073     11070     11069     11072     11074
     11070     11069     11072     11075     11071     11069     11072     11073
     11071     11069     11072     11074     11071     11069     11072     11075
     11072     11075     11078     11079     11072     11075     11078     11080
     11072     11075     11078     11081     11073     11072     11075     11076
     11073     11072     11075     11077     11073     11072     11075     11078
     11074     11072     11075     11076     11074     11072     11075     11077
     11074     11072     11075     11078     11075     11078     11081     11082
     11075     11078     11081     11083     11075     11078     11081     11084
     11076     11075     11078     11079     11076     11075     11078     11080
     11076     11075     11078     11081     11077     11075     11078     11079
     11077     11075     11078     11080     11077     11075     11078     11081
     11078     11081     11084     11085     11078     11081     11084     11086
     11078     11081     11084     11087     11079     11078     11081     11082
     11079     11078     11081     11083     11079     11078     11081     11084
     11080     11078     11081     11082     11080     11078     11081     11083
     11080     11078     11081     11084     11081     11084     11087     11088
     11081     11084     11087     11089     11081     11084     11087     11090
     11082     11081     11084     11085     11082     11081     11084     11086
     11082     11081     11084     11087     11083     11081     11084     11085
     11083     11081     11084     11086     11083     11081     11084     11087
     11084     11087     11090     11091     11084     11087     11090     11092
     11084     11087     11090     11093     11085     11084     11087     11088
     11085     11084     11087     11089     11085     11084     11087     11090
     11086     11084     11087     11088     11086     11084     11087     11089
     11086     11084     11087     11090     11087     11090     11093     11094
     11087     11090     11093     11095     11087     11090     11093     11096
     11088     11087     11090     11091     11088     11087     11090     11092
     11088     11087     11090     11093     11089     11087     11090     11091
     11089     11087     11090     11092     11089     11087     11090     11093
     11090     11093     11096     11097     11090     11093     11096     11098
     11090     11093     11096     11099     11091     11090     11093     11094
     11091     11090     11093     11095     11091     11090     11093     11096
     11092     11090     11093     11094     11092     11090     11093     11095
     11092     11090     11093     11096     11093     11096     11099     11100
     11093     11096     11099     11101     11093     11096     11099     11102
     11094     11093     11096     11097     11094     11093     11096     11098
     11094     11093     11096     11099     11095     11093     11096     11097
     11095     11093     11096     11098     11095     11093     11096     11099
     11096     11099     11102     11103     11096     11099     11102     11104
     11096     11099     11102     11105     11097     11096     11099     11100
     11097     11096     11099     11101     11097     11096     11099     11102
     11098     11096     11099     11100     11098     11096     11099     11101
     11098     11096     11099     11102     11099     11102     11105     11106
     11099     11102     11105     11107     11099     11102     11105     11108
     11100     11099     11102     11103     11100     11099     11102     11104
     11100     11099     11102     11105     11101     11099     11102     11103
     11101     11099     11102     11104     11101     11099     11102     11105
     11103     11102     11105     11106     11103     11102     11105     11107
     11103     11102     11105     11108     11104     11102     11105     11106
     11104     11102     11105     11107     11104     11102     11105     11108
     11109     11111     11114     11115     11109     11111     11114     11116
     11109     11111     11114     11117     11110     11109     11111     11112
     11110     11109     11111     11113     11110     11109     11111     11114
     11111     11114     11117     11118     11111     11114     11117     11119
     11111     11114     11117     11120     11112     11111     11114     11115
     11112     11111     11114     11116     11112     11111     11114     11117
     11113     11111     11114     11115     11113     11111     11114     11116
     11113     11111     11114     11117     11114     11117     11120     11121
     11114     11117     11120     11122     11114     11117     11120     11123
     11115     11114     11117     11118     11115     11114     11117     11119
     11115     11114     11117     11120     11116     11114     11117     11118
     11116     11114     11117     11119     11116     11114     11117     11120
     11117     11120     11123     11124     11117     11120     11123     11125
     11117     11120     11123     11126     11118     11117     11120     11121
     11118     11117     11120     11122     11118     11117     11120     11123
     11119     11117     11120     11121     11119     11117     11120     11122
     11119     11117     11120     11123     11120     11123     11126     11127
     11120     11123     11126     11128     11120     11123     11126     11129
     11121     11120     11123     11124     11121     11120     11123     11125
     11121     11120     11123     11126     11122     11120     11123     11124
     11122     11120     11123     11125     11122     11120     11123     11126
     11123     11126     11129     11130     11123     11126     11129     11131
     11123     11126     11129     11132     11124     11123     11126     11127
     11124     11123     11126     11128     11124     11123     11126     11129
     11125     11123     11126     11127     11125     11123     11126     11128
     11125     11123     11126     11129     11126     11129     11132     11133
     11126     11129     11132     11134     11127     11126     11129     11130
     11127     11126     11129     11131     11127     11126     11129     11132
     11128     11126     11129     11130     11128     11126     11129     11131
     11128     11126     11129     11132     11129     11132     11134     11135
     11129     11132     11134     11136     11130     11129     11132     11133
     11130     11129     11132     11134     11131     11129     11132     11133
     11131     11129     11132     11134     11132     11134     11136     11137
     11132     11134     11136     11138     11132     11134     11136     11139
     11133     11132     11134     11135     11133     11132     11134     11136
     11134     11136     11139     11140     11134     11136     11139     11141
     11134     11136     11139     11142     11135     11134     11136     11137
     11135     11134     11136     11138     11135     11134     11136     11139
     11136     11139     11142     11143     11136     11139     11142     11144
     11136     11139     11142     11145     11137     11136     11139     11140
     11137     11136     11139     11141     11137     11136     11139     11142
     11138     11136     11139     11140     11138     11136     11139     11141
     11138     11136     11139     11142     11139     11142     11145     11146
     11139     11142     11145     11147     11139     11142     11145     11148
     11140     11139     11142     11143     11140     11139     11142     11144
     11140     11139     11142     11145     11141     11139     11142     11143
     11141     11139     11142     11144     11141     11139     11142     11145
     11142     11145     11148     11149     11142     11145     11148     11150
     11142     11145     11148     11151     11143     11142     11145     11146
     11143     11142     11145     11147     11143     11142     11145     11148
     11144     11142     11145     11146     11144     11142     11145     11147
     11144     11142     11145     11148     11145     11148     11151     11152
     11145     11148     11151     11153     11145     11148     11151     11154
     11146     11145     11148     11149     11146     11145     11148     11150
     11146     11145     11148     11151     11147     11145     11148     11149
     11147     11145     11148     11150     11147     11145     11148     11151
     11148     11151     11154     11155     11148     11151     11154     11156
     11148     11151     11154     11157     11149     11148     11151     11152
     11149     11148     11151     11153     11149     11148     11151     11154
     11150     11148     11151     11152     11150     11148     11151     11153
     11150     11148     11151     11154     11151     11154     11157     11158
     11151     11154     11157     11159     11151     11154     11157     11160
     11152     11151     11154     11155     11152     11151     11154     11156
     11152     11151     11154     11157     11153     11151     11154     11155
     11153     11151     11154     11156     11153     11151     11154     11157
     11155     11154     11157     11158     11155     11154     11157     11159
     11155     11154     11157     11160     11156     11154     11157     11158
     11156     11154     11157     11159     11156     11154     11157     11160
     11161     11174     11177     11178     11161     11174     11177     11179
     11161     11174     11177     11184     11162     11161     11166     11167
     11162     11161     11166     11168     11162     11161     11166     11169
     11162     11161     11170     11171     11162     11161     11170     11172
     11162     11161     11170     11173     11162     11161     11174     11175
     11162     11161     11174     11176     11162     11161     11174     11177
     11163     11162     11161     11166     11163     11162     11161     11170
     11163     11162     11161     11174     11164     11162     11161     11166
     11164     11162     11161     11170     11164     11162     11161     11174
     11165     11162     11161     11166     11165     11162     11161     11170
     11165     11162     11161     11174     11166     11161     11170     11171
     11166     11161     11170     11172     11166     11161     11170     11173
     11166     11161     11174     11175     11166     11161     11174     11176
     11166     11161     11174     11177     11167     11166     11161     11170
     11167     11166     11161     11174     11168     11166     11161     11170
     11168     11166     11161     11174     11169     11166     11161     11170
     11169     11166     11161     11174     11170     11161     11174     11175
     11170     11161     11174     11176     11170     11161     11174     11177
     11171     11170     11161     11174     11172     11170     11161     11174
     11173     11170     11161     11174     11174     11177     11184     11180
     11175     11174     11177     11178     11175     11174     11177     11179
     11175     11174     11177     11184     11176     11174     11177     11178
     11176     11174     11177     11179     11176     11174     11177     11184
     11177     11184     11180     11181     11177     11184     11180     11182
     11177     11184     11180     11183     11178     11177     11184     11180
     11179     11177     11184     11180     11180     11183     11185     11186
     11180     11183     11185     11187     11180     11183     11185     11190
     11181     11180     11183     11185     11182     11180     11183     11185
     11183     11185     11190     11188     11183     11185     11190     11191
     11183     11185     11190     11192     11184     11180     11183     11185
     11185     11190     11188     11189     11185     11190     11188     11240
     11185     11190     11192     11193     11185     11190     11192     11194
     11185     11190     11192     11196     11186     11185     11190     11188
     11186     11185     11190     11191     11186     11185     11190     11192
     11187     11185     11190     11188     11187     11185     11190     11191
     11187     11185     11190     11192     11188     11190     11192     11193
     11188     11190     11192     11194     11188     11190     11192     11196
     11188     11240     11242     11243     11188     11240     11242     11244
     11188     11240     11242     11245     11189     11188     11190     11191
     11189     11188     11190     11192     11189     11188     11240     11241
     11189     11188     11240     11242     11190     11188     11240     11241
     11190     11188     11240     11242     11190     11192     11194     11195
     11190     11192     11196     11197     11190     11192     11196     11198
     11191     11190     11188     11240     11191     11190     11192     11193
     11191     11190     11192     11194     11191     11190     11192     11196
     11192     11190     11188     11240     11192     11196     11198     11199
     11192     11196     11198     11200     11193     11192     11194     11195
     11193     11192     11196     11197     11193     11192     11196     11198
     11194     11192     11196     11197     11194     11192     11196     11198
     11195     11194     11192     11196     11196     11198     11200     11201
     11196     11198     11200     11202     11196     11198     11200     11203
     11197     11196     11198     11199     11197     11196     11198     11200
     11198     11200     11203     11204     11198     11200     11203     11205
     11198     11200     11203     11206     11199     11198     11200     11201
     11199     11198     11200     11202     11199     11198     11200     11203
     11200     11203     11206     11207     11200     11203     11206     11208
     11200     11203     11206     11209     11201     11200     11203     11204
     11201     11200     11203     11205     11201     11200     11203     11206
     11202     11200     11203     11204     11202     11200     11203     11205
     11202     11200     11203     11206     11203     11206     11209     11210
     11203     11206     11209     11211     11203     11206     11209     11212
     11204     11203     11206     11207     11204     11203     11206     11208
     11204     11203     11206     11209     11205     11203     11206     11207
     11205     11203     11206     11208     11205     11203     11206     11209
     11206     11209     11212     11213     11206     11209     11212     11214
     11206     11209     11212     11215     11207     11206     11209     11210
     11207     11206     11209     11211     11207     11206     11209     11212
     11208     11206     11209     11210     11208     11206     11209     11211
     11208     11206     11209     11212     11209     11212     11215     11216
     11209     11212     11215     11217     11209     11212     11215     11218
     11210     11209     11212     11213     11210     11209     11212     11214
     11210     11209     11212     11215     11211     11209     11212     11213
     11211     11209     11212     11214     11211     11209     11212     11215
     11212     11215     11218     11219     11212     11215     11218     11220
     11212     11215     11218     11221     11213     11212     11215     11216
     11213     11212     11215     11217     11213     11212     11215     11218
     11214     11212     11215     11216     11214     11212     11215     11217
     11214     11212     11215     11218     11215     11218     11221     11222
     11215     11218     11221     11223     11215     11218     11221     11224
     11216     11215     11218     11219     11216     11215     11218     11220
     11216     11215     11218     11221     11217     11215     11218     11219
     11217     11215     11218     11220     11217     11215     11218     11221
     11218     11221     11224     11225     11218     11221     11224     11226
     11218     11221     11224     11227     11219     11218     11221     11222
     11219     11218     11221     11223     11219     11218     11221     11224
     11220     11218     11221     11222     11220     11218     11221     11223
     11220     11218     11221     11224     11221     11224     11227     11228
     11221     11224     11227     11229     11221     11224     11227     11230
     11222     11221     11224     11225     11222     11221     11224     11226
     11222     11221     11224     11227     11223     11221     11224     11225
     11223     11221     11224     11226     11223     11221     11224     11227
     11224     11227     11230     11231     11224     11227     11230     11232
     11224     11227     11230     11233     11225     11224     11227     11228
     11225     11224     11227     11229     11225     11224     11227     11230
     11226     11224     11227     11228     11226     11224     11227     11229
     11226     11224     11227     11230     11227     11230     11233     11234
     11227     11230     11233     11235     11227     11230     11233     11236
     11228     11227     11230     11231     11228     11227     11230     11232
     11228     11227     11230     11233     11229     11227     11230     11231
     11229     11227     11230     11232     11229     11227     11230     11233
     11230     11233     11236     11237     11230     11233     11236     11238
     11230     11233     11236     11239     11231     11230     11233     11234
     11231     11230     11233     11235     11231     11230     11233     11236
     11232     11230     11233     11234     11232     11230     11233     11235
     11232     11230     11233     11236     11234     11233     11236     11237
     11234     11233     11236     11238     11234     11233     11236     11239
     11235     11233     11236     11237     11235     11233     11236     11238
     11235     11233     11236     11239     11240     11242     11245     11246
     11240     11242     11245     11247     11240     11242     11245     11248
     11241     11240     11242     11243     11241     11240     11242     11244
     11241     11240     11242     11245     11242     11245     11248     11249
     11242     11245     11248     11250     11242     11245     11248     11251
     11243     11242     11245     11246     11243     11242     11245     11247
     11243     11242     11245     11248     11244     11242     11245     11246
     11244     11242     11245     11247     11244     11242     11245     11248
     11245     11248     11251     11252     11245     11248     11251     11253
     11245     11248     11251     11254     11246     11245     11248     11249
     11246     11245     11248     11250     11246     11245     11248     11251
     11247     11245     11248     11249     11247     11245     11248     11250
     11247     11245     11248     11251     11248     11251     11254     11255
     11248     11251     11254     11256     11248     11251     11254     11257
     11249     11248     11251     11252     11249     11248     11251     11253
     11249     11248     11251     11254     11250     11248     11251     11252
     11250     11248     11251     11253     11250     11248     11251     11254
     11251     11254     11257     11258     11251     11254     11257     11259
     11251     11254     11257     11260     11252     11251     11254     11255
     11252     11251     11254     11256     11252     11251     11254     11257
     11253     11251     11254     11255     11253     11251     11254     11256
     11253     11251     11254     11257     11254     11257     11260     11261
     11254     11257     11260     11262     11254     11257     11260     11263
     11255     11254     11257     11258     11255     11254     11257     11259
     11255     11254     11257     11260     11256     11254     11257     11258
     11256     11254     11257     11259     11256     11254     11257     11260
     11257     11260     11263     11264     11257     11260     11263     11265
     11258     11257     11260     11261     11258     11257     11260     11262
     11258     11257     11260     11263     11259     11257     11260     11261
     11259     11257     11260     11262     11259     11257     11260     11263
     11260     11263     11265     11266     11260     11263     11265     11267
     11261     11260     11263     11264     11261     11260     11263     11265
     11262     11260     11263     11264     11262     11260     11263     11265
     11263     11265     11267     11268     11263     11265     11267     11269
     11263     11265     11267     11270     11264     11263     11265     11266
     11264     11263     11265     11267     11265     11267     11270     11271
     11265     11267     11270     11272     11265     11267     11270     11273
     11266     11265     11267     11268     11266     11265     11267     11269
     11266     11265     11267     11270     11267     11270     11273     11274
     11267     11270     11273     11275     11267     11270     11273     11276
     11268     11267     11270     11271     11268     11267     11270     11272
     11268     11267     11270     11273     11269     11267     11270     11271
     11269     11267     11270     11272     11269     11267     11270     11273
     11270     11273     11276     11277     11270     11273     11276     11278
     11270     11273     11276     11279     11271     11270     11273     11274
     11271     11270     11273     11275     11271     11270     11273     11276
     11272     11270     11273     11274     11272     11270     11273     11275
     11272     11270     11273     11276     11273     11276     11279     11280
     11273     11276     11279     11281     11273     11276     11279     11282
     11274     11273     11276     11277     11274     11273     11276     11278
     11274     11273     11276     11279     11275     11273     11276     11277
     11275     11273     11276     11278     11275     11273     11276     11279
     11276     11279     11282     11283     11276     11279     11282     11284
     11276     11279     11282     11285     11277     11276     11279     11280
     11277     11276     11279     11281     11277     11276     11279     11282
     11278     11276     11279     11280     11278     11276     11279     11281
     11278     11276     11279     11282     11279     11282     11285     11286
     11279     11282     11285     11287     11279     11282     11285     11288
     11280     11279     11282     11283     11280     11279     11282     11284
     11280     11279     11282     11285     11281     11279     11282     11283
     11281     11279     11282     11284     11281     11279     11282     11285
     11282     11285     11288     11289     11282     11285     11288     11290
     11282     11285     11288     11291     11283     11282     11285     11286
     11283     11282     11285     11287     11283     11282     11285     11288
     11284     11282     11285     11286     11284     11282     11285     11287
     11284     11282     11285     11288     11286     11285     11288     11289
     11286     11285     11288     11290     11286     11285     11288     11291
     11287     11285     11288     11289     11287     11285     11288     11290
     11287     11285     11288     11291     11292     11296     11299     11300
     11292     11296     11299     11330     11292     11338     11335     11330
     11292     11338     11335     11336     11292     11338     11335     11337
     11293     11292     11294     11295     11293     11292     11296     11297
     11293     11292     11296     11298     11293     11292     11296     11299
     11293     11292     11338     11335     11293     11292     11338     11339
     11293     11292     11338     11340     11294     11292     11296     11297
     11294     11292     11296     11298     11294     11292     11296     11299
     11294     11292     11338     11335     11294     11292     11338     11339
     11294     11292     11338     11340     11295     11294     11292     11296
     11295     11294     11292     11338     11296     11292     11338     11335
     11296     11292     11338     11339     11296     11292     11338     11340
     11296     11299     11300     11301     11296     11299     11300     11302
     11296     11299     11330     11328     11296     11299     11330     11331
     11296     11299     11330     11335     11297     11296     11292     11338
     11297     11296     11299     11300     11297     11296     11299     11330
     11298     11296     11292     11338     11298     11296     11299     11300
     11298     11296     11299     11330     11299     11296     11292     11338
     11299     11300     11302     11303     11299     11300     11302     11304
     11299     11300     11302     11305     11299     11330     11328     11305
     11299     11330     11328     11325     11299     11330     11328     11329
     11299     11330     11331     11332     11299     11330     11331     11333
     11299     11330     11331     11334     11299     11330     11335     11336
     11299     11330     11335     11337     11299     11330     11335     11338
     11300     11299     11330     11328     11300     11299     11330     11331
     11300     11299     11330     11335     11300     11302     11305     11306
     11300     11302     11305     11307     11300     11302     11305     11328
     11301     11300     11299     11330     11301     11300     11302     11303
     11301     11300     11302     11304     11301     11300     11302     11305
     11302     11300     11299     11330     11302     11305     11307     11308
     11302     11305     11307     11309     11302     11305     11307     11317
     11302     11305     11328     11325     11302     11305     11328     11329
     11302     11305     11328     11330     11303     11302     11305     11306
     11303     11302     11305     11307     11303     11302     11305     11328
     11304     11302     11305     11306     11304     11302     11305     11307
     11304     11302     11305     11328     11305     11307     11309     11310
     11305     11307     11309     11311     11305     11307     11309     11312
     11305     11307     11317     11315     11305     11307     11317     11318
     11305     11307     11317     11322     11305     11328     11325     11322
     11305     11328     11325     11326     11305     11328     11325     11327
     11305     11328     11330     11331     11305     11328     11330     11335
     11306     11305     11307     11308     11306     11305     11307     11309
     11306     11305     11307     11317     11306     11305     11328     11325
     11306     11305     11328     11329     11306     11305     11328     11330
     11307     11305     11328     11325     11307     11305     11328     11329
     11307     11305     11328     11330     11307     11309     11312     11313
     11307     11309     11312     11314     11307     11309     11312     11315
     11307     11317     11315     11312     11307     11317     11315     11316
     11307     11317     11315     11341     11307     11317     11318     11319
     11307     11317     11318     11320     11307     11317     11318     11321
     11307     11317     11322     11323     11307     11317     11322     11324
     11307     11317     11322     11325     11308     11307     11305     11328
     11308     11307     11309     11310     11308     11307     11309     11311
     11308     11307     11309     11312     11308     11307     11317     11315
     11308     11307     11317     11318     11308     11307     11317     11322
     11309     11307     11305     11328     11309     11307     11317     11315
     11309     11307     11317     11318     11309     11307     11317     11322
     11309     11312     11315     11316     11309     11312     11315     11317
     11309     11312     11315     11341     11310     11309     11307     11317
     11310     11309     11312     11313     11310     11309     11312     11314
     11310     11309     11312     11315     11311     11309     11307     11317
     11311     11309     11312     11313     11311     11309     11312     11314
     11311     11309     11312     11315     11312     11309     11307     11317
     11312     11315     11317     11318     11312     11315     11317     11322
     11312     11315     11341     11342     11312     11315     11341     11343
     11312     11315     11341     11347     11313     11312     11315     11316
     11313     11312     11315     11317     11313     11312     11315     11341
     11314     11312     11315     11316     11314     11312     11315     11317
     11314     11312     11315     11341     11315     11317     11318     11319
     11315     11317     11318     11320     11315     11317     11318     11321
     11315     11317     11322     11323     11315     11317     11322     11324
     11315     11317     11322     11325     11315     11341     11343     11344
     11315     11341     11343     11345     11315     11341     11343     11346
     11315     11341     11347     11348     11315     11341     11347     11349
     11315     11341     11347     11350     11316     11315     11317     11318
     11316     11315     11317     11322     11316     11315     11341     11342
     11316     11315     11341     11343     11316     11315     11341     11347
     11317     11307     11305     11328     11317     11315     11341     11342
     11317     11315     11341     11343     11317     11315     11341     11347
     11317     11322     11325     11326     11317     11322     11325     11327
     11317     11322     11325     11328     11318     11317     11315     11341
     11318     11317     11322     11323     11318     11317     11322     11324
     11318     11317     11322     11325     11319     11318     11317     11322
     11320     11318     11317     11322     11321     11318     11317     11322
     11322     11317     11315     11341     11322     11325     11328     11329
     11322     11325     11328     11330     11323     11322     11325     11326
     11323     11322     11325     11327     11323     11322     11325     11328
     11324     11322     11325     11326     11324     11322     11325     11327
     11324     11322     11325     11328     11325     11328     11330     11331
     11325     11328     11330     11335     11326     11325     11328     11329
     11326     11325     11328     11330     11327     11325     11328     11329
     11327     11325     11328     11330     11328     11330     11331     11332
     11328     11330     11331     11333     11328     11330     11331     11334
     11328     11330     11335     11336     11328     11330     11335     11337
     11328     11330     11335     11338     11329     11328     11330     11331
     11329     11328     11330     11335     11330     11335     11338     11339
     11330     11335     11338     11340     11331     11330     11335     11336
     11331     11330     11335     11337     11331     11330     11335     11338
     11332     11331     11330     11335     11333     11331     11330     11335
     11334     11331     11330     11335     11336     11335     11338     11339
     11336     11335     11338     11340     11337     11335     11338     11339
     11337     11335     11338     11340     11341     11347     11350     11351
     11341     11347     11350     11352     11341     11347     11350     11353
     11342     11341     11343     11344     11342     11341     11343     11345
     11342     11341     11343     11346     11342     11341     11347     11348
     11342     11341     11347     11349     11342     11341     11347     11350
     11343     11341     11347     11348     11343     11341     11347     11349
     11343     11341     11347     11350     11344     11343     11341     11347
     11345     11343     11341     11347     11346     11343     11341     11347
     11347     11350     11353     11354     11347     11350     11353     11355
     11347     11350     11353     11356     11348     11347     11350     11351
     11348     11347     11350     11352     11348     11347     11350     11353
     11349     11347     11350     11351     11349     11347     11350     11352
     11349     11347     11350     11353     11350     11353     11356     11357
     11350     11353     11356     11358     11350     11353     11356     11362
     11351     11350     11353     11354     11351     11350     11353     11355
     11351     11350     11353     11356     11352     11350     11353     11354
     11352     11350     11353     11355     11352     11350     11353     11356
     11353     11356     11358     11359     11353     11356     11358     11360
     11353     11356     11358     11361     11353     11356     11362     11363
     11353     11356     11362     11364     11353     11356     11362     11365
     11354     11353     11356     11357     11354     11353     11356     11358
     11354     11353     11356     11362     11355     11353     11356     11357
     11355     11353     11356     11358     11355     11353     11356     11362
     11357     11356     11358     11359     11357     11356     11358     11360
     11357     11356     11358     11361     11357     11356     11362     11363
     11357     11356     11362     11364     11357     11356     11362     11365
     11358     11356     11362     11363     11358     11356     11362     11364
     11358     11356     11362     11365     11359     11358     11356     11362
     11360     11358     11356     11362     11361     11358     11356     11362
     11366     11379     11382     11383     11366     11379     11382     11384
     11366     11379     11382     11388     11367     11366     11371     11372
     11367     11366     11371     11373     11367     11366     11371     11374
     11367     11366     11375     11376     11367     11366     11375     11377
     11367     11366     11375     11378     11367     11366     11379     11380
     11367     11366     11379     11381     11367     11366     11379     11382
     11368     11367     11366     11371     11368     11367     11366     11375
     11368     11367     11366     11379     11369     11367     11366     11371
     11369     11367     11366     11375     11369     11367     11366     11379
     11370     11367     11366     11371     11370     11367     11366     11375
     11370     11367     11366     11379     11371     11366     11375     11376
     11371     11366     11375     11377     11371     11366     11375     11378
     11371     11366     11379     11380     11371     11366     11379     11381
     11371     11366     11379     11382     11372     11371     11366     11375
     11372     11371     11366     11379     11373     11371     11366     11375
     11373     11371     11366     11379     11374     11371     11366     11375
     11374     11371     11366     11379     11375     11366     11379     11380
     11375     11366     11379     11381     11375     11366     11379     11382
     11376     11375     11366     11379     11377     11375     11366     11379
     11378     11375     11366     11379     11379     11382     11388     11385
     11380     11379     11382     11383     11380     11379     11382     11384
     11380     11379     11382     11388     11381     11379     11382     11383
     11381     11379     11382     11384     11381     11379     11382     11388
     11382     11388     11385     11386     11382     11388     11385     11387
     11382     11388     11385     11389     11383     11382     11388     11385
     11384     11382     11388     11385     11385     11389     11390     11391
     11385     11389     11390     11392     11385     11389     11390     11393
     11386     11385     11389     11390     11387     11385     11389     11390
     11388     11385     11389     11390     11389     11390     11393     11394
     11389     11390     11393     11395     11389     11390     11393     11401
     11390     11393     11395     11396     11390     11393     11401     11402
     11390     11393     11401     11403     11390     11393     11401     11404
     11391     11390     11393     11394     11391     11390     11393     11395
     11391     11390     11393     11401     11392     11390     11393     11394
     11392     11390     11393     11395     11392     11390     11393     11401
     11393     11395     11396     11397     11393     11395     11396     11398
     11393     11401     11404     11405     11394     11393     11395     11396
     11394     11393     11401     11402     11394     11393     11401     11403
     11394     11393     11401     11404     11395     11393     11401     11402
     11395     11393     11401     11403     11395     11393     11401     11404
     11395     11396     11398     11399     11395     11396     11398     11400
     11395     11396     11398     11410     11396     11395     11393     11401
     11396     11398     11410     11411     11396     11398     11410     11412
     11396     11398     11410     11413     11397     11396     11398     11399
     11397     11396     11398     11400     11397     11396     11398     11410
     11398     11410     11413     11414     11398     11410     11413     11415
     11398     11410     11413     11416     11399     11398     11410     11411
     11399     11398     11410     11412     11399     11398     11410     11413
     11400     11398     11410     11411     11400     11398     11410     11412
     11400     11398     11410     11413     11401     11404     11405     11406
     11401     11404     11405     11407     11402     11401     11404     11405
     11403     11401     11404     11405     11404     11405     11407     11408
     11404     11405     11407     11409     11404     11405     11407     11455
     11405     11407     11455     11456     11405     11407     11455     11457
     11405     11407     11455     11458     11406     11405     11407     11408
     11406     11405     11407     11409     11406     11405     11407     11455
     11407     11455     11458     11459     11407     11455     11458     11460
     11407     11455     11458     11461     11408     11407     11455     11456
     11408     11407     11455     11457     11408     11407     11455     11458
     11409     11407     11455     11456     11409     11407     11455     11457
     11409     11407     11455     11458     11410     11413     11416     11417
     11410     11413     11416     11418     11410     11413     11416     11419
     11411     11410     11413     11414     11411     11410     11413     11415
     11411     11410     11413     11416     11412     11410     11413     11414
     11412     11410     11413     11415     11412     11410     11413     11416
     11413     11416     11419     11420     11413     11416     11419     11421
     11413     11416     11419     11422     11414     11413     11416     11417
     11414     11413     11416     11418     11414     11413     11416     11419
     11415     11413     11416     11417     11415     11413     11416     11418
     11415     11413     11416     11419     11416     11419     11422     11423
     11416     11419     11422     11424     11416     11419     11422     11425
     11417     11416     11419     11420     11417     11416     11419     11421
     11417     11416     11419     11422     11418     11416     11419     11420
     11418     11416     11419     11421     11418     11416     11419     11422
     11419     11422     11425     11426     11419     11422     11425     11427
     11419     11422     11425     11428     11420     11419     11422     11423
     11420     11419     11422     11424     11420     11419     11422     11425
     11421     11419     11422     11423     11421     11419     11422     11424
     11421     11419     11422     11425     11422     11425     11428     11429
     11422     11425     11428     11430     11423     11422     11425     11426
     11423     11422     11425     11427     11423     11422     11425     11428
     11424     11422     11425     11426     11424     11422     11425     11427
     11424     11422     11425     11428     11425     11428     11430     11431
     11425     11428     11430     11432     11426     11425     11428     11429
     11426     11425     11428     11430     11427     11425     11428     11429
     11427     11425     11428     11430     11428     11430     11432     11433
     11428     11430     11432     11434     11428     11430     11432     11435
     11429     11428     11430     11431     11429     11428     11430     11432
     11430     11432     11435     11436     11430     11432     11435     11437
     11431     11430     11432     11433     11431     11430     11432     11434
     11431     11430     11432     11435     11432     11435     11437     11438
     11432     11435     11437     11439     11433     11432     11435     11436
     11433     11432     11435     11437     11434     11432     11435     11436
     11434     11432     11435     11437     11435     11437     11439     11440
     11435     11437     11439     11441     11435     11437     11439     11442
     11436     11435     11437     11438     11436     11435     11437     11439
     11437     11439     11442     11443     11437     11439     11442     11444
     11437     11439     11442     11445     11438     11437     11439     11440
     11438     11437     11439     11441     11438     11437     11439     11442
     11439     11442     11445     11446     11439     11442     11445     11447
     11439     11442     11445     11448     11440     11439     11442     11443
     11440     11439     11442     11444     11440     11439     11442     11445
     11441     11439     11442     11443     11441     11439     11442     11444
     11441     11439     11442     11445     11442     11445     11448     11449
     11442     11445     11448     11450     11442     11445     11448     11451
     11443     11442     11445     11446     11443     11442     11445     11447
     11443     11442     11445     11448     11444     11442     11445     11446
     11444     11442     11445     11447     11444     11442     11445     11448
     11445     11448     11451     11452     11445     11448     11451     11453
     11445     11448     11451     11454     11446     11445     11448     11449
     11446     11445     11448     11450     11446     11445     11448     11451
     11447     11445     11448     11449     11447     11445     11448     11450
     11447     11445     11448     11451     11449     11448     11451     11452
     11449     11448     11451     11453     11449     11448     11451     11454
     11450     11448     11451     11452     11450     11448     11451     11453
     11450     11448     11451     11454     11455     11458     11461     11462
     11455     11458     11461     11463     11455     11458     11461     11464
     11456     11455     11458     11459     11456     11455     11458     11460
     11456     11455     11458     11461     11457     11455     11458     11459
     11457     11455     11458     11460     11457     11455     11458     11461
     11458     11461     11464     11465     11458     11461     11464     11466
     11458     11461     11464     11467     11459     11458     11461     11462
     11459     11458     11461     11463     11459     11458     11461     11464
     11460     11458     11461     11462     11460     11458     11461     11463
     11460     11458     11461     11464     11461     11464     11467     11468
     11461     11464     11467     11469     11461     11464     11467     11470
     11462     11461     11464     11465     11462     11461     11464     11466
     11462     11461     11464     11467     11463     11461     11464     11465
     11463     11461     11464     11466     11463     11461     11464     11467
     11464     11467     11470     11471     11464     11467     11470     11472
     11464     11467     11470     11473     11465     11464     11467     11468
     11465     11464     11467     11469     11465     11464     11467     11470
     11466     11464     11467     11468     11466     11464     11467     11469
     11466     11464     11467     11470     11467     11470     11473     11474
     11467     11470     11473     11475     11467     11470     11473     11476
     11468     11467     11470     11471     11468     11467     11470     11472
     11468     11467     11470     11473     11469     11467     11470     11471
     11469     11467     11470     11472     11469     11467     11470     11473
     11470     11473     11476     11477     11470     11473     11476     11478
     11470     11473     11476     11479     11471     11470     11473     11474
     11471     11470     11473     11475     11471     11470     11473     11476
     11472     11470     11473     11474     11472     11470     11473     11475
     11472     11470     11473     11476     11473     11476     11479     11480
     11473     11476     11479     11481     11473     11476     11479     11482
     11474     11473     11476     11477     11474     11473     11476     11478
     11474     11473     11476     11479     11475     11473     11476     11477
     11475     11473     11476     11478     11475     11473     11476     11479
     11476     11479     11482     11483     11476     11479     11482     11484
     11476     11479     11482     11485     11477     11476     11479     11480
     11477     11476     11479     11481     11477     11476     11479     11482
     11478     11476     11479     11480     11478     11476     11479     11481
     11478     11476     11479     11482     11479     11482     11485     11486
     11479     11482     11485     11487     11479     11482     11485     11488
     11480     11479     11482     11483     11480     11479     11482     11484
     11480     11479     11482     11485     11481     11479     11482     11483
     11481     11479     11482     11484     11481     11479     11482     11485
     11482     11485     11488     11489     11482     11485     11488     11490
     11482     11485     11488     11491     11483     11482     11485     11486
     11483     11482     11485     11487     11483     11482     11485     11488
     11484     11482     11485     11486     11484     11482     11485     11487
     11484     11482     11485     11488     11485     11488     11491     11492
     11485     11488     11491     11493     11485     11488     11491     11494
     11486     11485     11488     11489     11486     11485     11488     11490
     11486     11485     11488     11491     11487     11485     11488     11489
     11487     11485     11488     11490     11487     11485     11488     11491
     11488     11491     11494     11495     11488     11491     11494     11496
     11488     11491     11494     11497     11489     11488     11491     11492
     11489     11488     11491     11493     11489     11488     11491     11494
     11490     11488     11491     11492     11490     11488     11491     11493
     11490     11488     11491     11494     11491     11494     11497     11498
     11491     11494     11497     11499     11491     11494     11497     11500
     11492     11491     11494     11495     11492     11491     11494     11496
     11492     11491     11494     11497     11493     11491     11494     11495
     11493     11491     11494     11496     11493     11491     11494     11497
     11494     11497     11500     11501     11494     11497     11500     11502
     11494     11497     11500     11503     11495     11494     11497     11498
     11495     11494     11497     11499     11495     11494     11497     11500
     11496     11494     11497     11498     11496     11494     11497     11499
     11496     11494     11497     11500     11498     11497     11500     11501
     11498     11497     11500     11502     11498     11497     11500     11503
     11499     11497     11500     11501     11499     11497     11500     11502
     11499     11497     11500     11503     11504     11517     11520     11521
     11504     11517     11520     11522     11504     11517     11520     11526
     11505     11504     11509     11510     11505     11504     11509     11511
     11505     11504     11509     11512     11505     11504     11513     11514
     11505     11504     11513     11515     11505     11504     11513     11516
     11505     11504     11517     11518     11505     11504     11517     11519
     11505     11504     11517     11520     11506     11505     11504     11509
     11506     11505     11504     11513     11506     11505     11504     11517
     11507     11505     11504     11509     11507     11505     11504     11513
     11507     11505     11504     11517     11508     11505     11504     11509
     11508     11505     11504     11513     11508     11505     11504     11517
     11509     11504     11513     11514     11509     11504     11513     11515
     11509     11504     11513     11516     11509     11504     11517     11518
     11509     11504     11517     11519     11509     11504     11517     11520
     11510     11509     11504     11513     11510     11509     11504     11517
     11511     11509     11504     11513     11511     11509     11504     11517
     11512     11509     11504     11513     11512     11509     11504     11517
     11513     11504     11517     11518     11513     11504     11517     11519
     11513     11504     11517     11520     11514     11513     11504     11517
     11515     11513     11504     11517     11516     11513     11504     11517
     11517     11520     11526     11523     11518     11517     11520     11521
     11518     11517     11520     11522     11518     11517     11520     11526
     11519     11517     11520     11521     11519     11517     11520     11522
     11519     11517     11520     11526     11520     11526     11523     11524
     11520     11526     11523     11525     11520     11526     11523     11527
     11521     11520     11526     11523     11522     11520     11526     11523
     11523     11527     11528     11529     11523     11527     11528     11530
     11523     11527     11528     11531     11524     11523     11527     11528
     11525     11523     11527     11528     11526     11523     11527     11528
     11527     11528     11531     11532     11527     11528     11531     11533
     11527     11528     11531     11539     11528     11531     11533     11534
     11528     11531     11539     11540     11528     11531     11539     11541
     11528     11531     11539     11542     11529     11528     11531     11532
     11529     11528     11531     11533     11529     11528     11531     11539
     11530     11528     11531     11532     11530     11528     11531     11533
     11530     11528     11531     11539     11531     11533     11534     11535
     11531     11533     11534     11536     11531     11539     11542     11543
     11532     11531     11533     11534     11532     11531     11539     11540
     11532     11531     11539     11541     11532     11531     11539     11542
     11533     11531     11539     11540     11533     11531     11539     11541
     11533     11531     11539     11542     11533     11534     11536     11537
     11533     11534     11536     11538     11533     11534     11536     11548
     11534     11533     11531     11539     11534     11536     11548     11549
     11534     11536     11548     11550     11534     11536     11548     11551
     11535     11534     11536     11537     11535     11534     11536     11538
     11535     11534     11536     11548     11536     11548     11551     11552
     11536     11548     11551     11553     11536     11548     11551     11554
     11537     11536     11548     11549     11537     11536     11548     11550
     11537     11536     11548     11551     11538     11536     11548     11549
     11538     11536     11548     11550     11538     11536     11548     11551
     11539     11542     11543     11544     11539     11542     11543     11545
     11540     11539     11542     11543     11541     11539     11542     11543
     11542     11543     11545     11546     11542     11543     11545     11547
     11542     11543     11545     11593     11543     11545     11593     11594
     11543     11545     11593     11595     11543     11545     11593     11596
     11544     11543     11545     11546     11544     11543     11545     11547
     11544     11543     11545     11593     11545     11593     11596     11597
     11545     11593     11596     11598     11545     11593     11596     11599
     11546     11545     11593     11594     11546     11545     11593     11595
     11546     11545     11593     11596     11547     11545     11593     11594
     11547     11545     11593     11595     11547     11545     11593     11596
     11548     11551     11554     11555     11548     11551     11554     11556
     11548     11551     11554     11557     11549     11548     11551     11552
     11549     11548     11551     11553     11549     11548     11551     11554
     11550     11548     11551     11552     11550     11548     11551     11553
     11550     11548     11551     11554     11551     11554     11557     11558
     11551     11554     11557     11559     11551     11554     11557     11560
     11552     11551     11554     11555     11552     11551     11554     11556
     11552     11551     11554     11557     11553     11551     11554     11555
     11553     11551     11554     11556     11553     11551     11554     11557
     11554     11557     11560     11561     11554     11557     11560     11562
     11554     11557     11560     11563     11555     11554     11557     11558
     11555     11554     11557     11559     11555     11554     11557     11560
     11556     11554     11557     11558     11556     11554     11557     11559
     11556     11554     11557     11560     11557     11560     11563     11564
     11557     11560     11563     11565     11557     11560     11563     11566
     11558     11557     11560     11561     11558     11557     11560     11562
     11558     11557     11560     11563     11559     11557     11560     11561
     11559     11557     11560     11562     11559     11557     11560     11563
     11560     11563     11566     11567     11560     11563     11566     11568
     11561     11560     11563     11564     11561     11560     11563     11565
     11561     11560     11563     11566     11562     11560     11563     11564
     11562     11560     11563     11565     11562     11560     11563     11566
     11563     11566     11568     11569     11563     11566     11568     11570
     11564     11563     11566     11567     11564     11563     11566     11568
     11565     11563     11566     11567     11565     11563     11566     11568
     11566     11568     11570     11571     11566     11568     11570     11572
     11566     11568     11570     11573     11567     11566     11568     11569
     11567     11566     11568     11570     11568     11570     11573     11574
     11568     11570     11573     11575     11569     11568     11570     11571
     11569     11568     11570     11572     11569     11568     11570     11573
     11570     11573     11575     11576     11570     11573     11575     11577
     11571     11570     11573     11574     11571     11570     11573     11575
     11572     11570     11573     11574     11572     11570     11573     11575
     11573     11575     11577     11578     11573     11575     11577     11579
     11573     11575     11577     11580     11574     11573     11575     11576
     11574     11573     11575     11577     11575     11577     11580     11581
     11575     11577     11580     11582     11575     11577     11580     11583
     11576     11575     11577     11578     11576     11575     11577     11579
     11576     11575     11577     11580     11577     11580     11583     11584
     11577     11580     11583     11585     11577     11580     11583     11586
     11578     11577     11580     11581     11578     11577     11580     11582
     11578     11577     11580     11583     11579     11577     11580     11581
     11579     11577     11580     11582     11579     11577     11580     11583
     11580     11583     11586     11587     11580     11583     11586     11588
     11580     11583     11586     11589     11581     11580     11583     11584
     11581     11580     11583     11585     11581     11580     11583     11586
     11582     11580     11583     11584     11582     11580     11583     11585
     11582     11580     11583     11586     11583     11586     11589     11590
     11583     11586     11589     11591     11583     11586     11589     11592
     11584     11583     11586     11587     11584     11583     11586     11588
     11584     11583     11586     11589     11585     11583     11586     11587
     11585     11583     11586     11588     11585     11583     11586     11589
     11587     11586     11589     11590     11587     11586     11589     11591
     11587     11586     11589     11592     11588     11586     11589     11590
     11588     11586     11589     11591     11588     11586     11589     11592
     11593     11596     11599     11600     11593     11596     11599     11601
     11593     11596     11599     11602     11594     11593     11596     11597
     11594     11593     11596     11598     11594     11593     11596     11599
     11595     11593     11596     11597     11595     11593     11596     11598
     11595     11593     11596     11599     11596     11599     11602     11603
     11596     11599     11602     11604     11596     11599     11602     11605
     11597     11596     11599     11600     11597     11596     11599     11601
     11597     11596     11599     11602     11598     11596     11599     11600
     11598     11596     11599     11601     11598     11596     11599     11602
     11599     11602     11605     11606     11599     11602     11605     11607
     11599     11602     11605     11608     11600     11599     11602     11603
     11600     11599     11602     11604     11600     11599     11602     11605
     11601     11599     11602     11603     11601     11599     11602     11604
     11601     11599     11602     11605     11602     11605     11608     11609
     11602     11605     11608     11610     11602     11605     11608     11611
     11603     11602     11605     11606     11603     11602     11605     11607
     11603     11602     11605     11608     11604     11602     11605     11606
     11604     11602     11605     11607     11604     11602     11605     11608
     11605     11608     11611     11612     11605     11608     11611     11613
     11605     11608     11611     11614     11606     11605     11608     11609
     11606     11605     11608     11610     11606     11605     11608     11611
     11607     11605     11608     11609     11607     11605     11608     11610
     11607     11605     11608     11611     11608     11611     11614     11615
     11608     11611     11614     11616     11608     11611     11614     11617
     11609     11608     11611     11612     11609     11608     11611     11613
     11609     11608     11611     11614     11610     11608     11611     11612
     11610     11608     11611     11613     11610     11608     11611     11614
     11611     11614     11617     11618     11611     11614     11617     11619
     11611     11614     11617     11620     11612     11611     11614     11615
     11612     11611     11614     11616     11612     11611     11614     11617
     11613     11611     11614     11615     11613     11611     11614     11616
     11613     11611     11614     11617     11614     11617     11620     11621
     11614     11617     11620     11622     11614     11617     11620     11623
     11615     11614     11617     11618     11615     11614     11617     11619
     11615     11614     11617     11620     11616     11614     11617     11618
     11616     11614     11617     11619     11616     11614     11617     11620
     11617     11620     11623     11624     11617     11620     11623     11625
     11617     11620     11623     11626     11618     11617     11620     11621
     11618     11617     11620     11622     11618     11617     11620     11623
     11619     11617     11620     11621     11619     11617     11620     11622
     11619     11617     11620     11623     11620     11623     11626     11627
     11620     11623     11626     11628     11620     11623     11626     11629
     11621     11620     11623     11624     11621     11620     11623     11625
     11621     11620     11623     11626     11622     11620     11623     11624
     11622     11620     11623     11625     11622     11620     11623     11626
     11623     11626     11629     11630     11623     11626     11629     11631
     11623     11626     11629     11632     11624     11623     11626     11627
     11624     11623     11626     11628     11624     11623     11626     11629
     11625     11623     11626     11627     11625     11623     11626     11628
     11625     11623     11626     11629     11626     11629     11632     11633
     11626     11629     11632     11634     11626     11629     11632     11635
     11627     11626     11629     11630     11627     11626     11629     11631
     11627     11626     11629     11632     11628     11626     11629     11630
     11628     11626     11629     11631     11628     11626     11629     11632
     11629     11632     11635     11636     11629     11632     11635     11637
     11629     11632     11635     11638     11630     11629     11632     11633
     11630     11629     11632     11634     11630     11629     11632     11635
     11631     11629     11632     11633     11631     11629     11632     11634
     11631     11629     11632     11635     11632     11635     11638     11639
     11632     11635     11638     11640     11632     11635     11638     11641
     11633     11632     11635     11636     11633     11632     11635     11637
     11633     11632     11635     11638     11634     11632     11635     11636
     11634     11632     11635     11637     11634     11632     11635     11638
     11636     11635     11638     11639     11636     11635     11638     11640
     11636     11635     11638     11641     11637     11635     11638     11639
     11637     11635     11638     11640     11637     11635     11638     11641
     11642     11646     11649     11650     11642     11646     11649     11680
     11642     11688     11685     11680     11642     11688     11685     11686
     11642     11688     11685     11687     11643     11642     11644     11645
     11643     11642     11646     11647     11643     11642     11646     11648
     11643     11642     11646     11649     11643     11642     11688     11685
     11643     11642     11688     11689     11643     11642     11688     11690
     11644     11642     11646     11647     11644     11642     11646     11648
     11644     11642     11646     11649     11644     11642     11688     11685
     11644     11642     11688     11689     11644     11642     11688     11690
     11645     11644     11642     11646     11645     11644     11642     11688
     11646     11642     11688     11685     11646     11642     11688     11689
     11646     11642     11688     11690     11646     11649     11650     11651
     11646     11649     11650     11652     11646     11649     11680     11678
     11646     11649     11680     11681     11646     11649     11680     11685
     11647     11646     11642     11688     11647     11646     11649     11650
     11647     11646     11649     11680     11648     11646     11642     11688
     11648     11646     11649     11650     11648     11646     11649     11680
     11649     11646     11642     11688     11649     11650     11652     11653
     11649     11650     11652     11654     11649     11650     11652     11655
     11649     11680     11678     11655     11649     11680     11678     11675
     11649     11680     11678     11679     11649     11680     11681     11682
     11649     11680     11681     11683     11649     11680     11681     11684
     11649     11680     11685     11686     11649     11680     11685     11687
     11649     11680     11685     11688     11650     11649     11680     11678
     11650     11649     11680     11681     11650     11649     11680     11685
     11650     11652     11655     11656     11650     11652     11655     11657
     11650     11652     11655     11678     11651     11650     11649     11680
     11651     11650     11652     11653     11651     11650     11652     11654
     11651     11650     11652     11655     11652     11650     11649     11680
     11652     11655     11657     11658     11652     11655     11657     11659
     11652     11655     11657     11667     11652     11655     11678     11675
     11652     11655     11678     11679     11652     11655     11678     11680
     11653     11652     11655     11656     11653     11652     11655     11657
     11653     11652     11655     11678     11654     11652     11655     11656
     11654     11652     11655     11657     11654     11652     11655     11678
     11655     11657     11659     11660     11655     11657     11659     11661
     11655     11657     11659     11662     11655     11657     11667     11665
     11655     11657     11667     11668     11655     11657     11667     11672
     11655     11678     11675     11672     11655     11678     11675     11676
     11655     11678     11675     11677     11655     11678     11680     11681
     11655     11678     11680     11685     11656     11655     11657     11658
     11656     11655     11657     11659     11656     11655     11657     11667
     11656     11655     11678     11675     11656     11655     11678     11679
     11656     11655     11678     11680     11657     11655     11678     11675
     11657     11655     11678     11679     11657     11655     11678     11680
     11657     11659     11662     11663     11657     11659     11662     11664
     11657     11659     11662     11665     11657     11667     11665     11662
     11657     11667     11665     11666     11657     11667     11665     11691
     11657     11667     11668     11669     11657     11667     11668     11670
     11657     11667     11668     11671     11657     11667     11672     11673
     11657     11667     11672     11674     11657     11667     11672     11675
     11658     11657     11655     11678     11658     11657     11659     11660
     11658     11657     11659     11661     11658     11657     11659     11662
     11658     11657     11667     11665     11658     11657     11667     11668
     11658     11657     11667     11672     11659     11657     11655     11678
     11659     11657     11667     11665     11659     11657     11667     11668
     11659     11657     11667     11672     11659     11662     11665     11666
     11659     11662     11665     11667     11659     11662     11665     11691
     11660     11659     11657     11667     11660     11659     11662     11663
     11660     11659     11662     11664     11660     11659     11662     11665
     11661     11659     11657     11667     11661     11659     11662     11663
     11661     11659     11662     11664     11661     11659     11662     11665
     11662     11659     11657     11667     11662     11665     11667     11668
     11662     11665     11667     11672     11662     11665     11691     11692
     11662     11665     11691     11693     11662     11665     11691     11697
     11663     11662     11665     11666     11663     11662     11665     11667
     11663     11662     11665     11691     11664     11662     11665     11666
     11664     11662     11665     11667     11664     11662     11665     11691
     11665     11667     11668     11669     11665     11667     11668     11670
     11665     11667     11668     11671     11665     11667     11672     11673
     11665     11667     11672     11674     11665     11667     11672     11675
     11665     11691     11693     11694     11665     11691     11693     11695
     11665     11691     11693     11696     11665     11691     11697     11698
     11665     11691     11697     11699     11665     11691     11697     11700
     11666     11665     11667     11668     11666     11665     11667     11672
     11666     11665     11691     11692     11666     11665     11691     11693
     11666     11665     11691     11697     11667     11657     11655     11678
     11667     11665     11691     11692     11667     11665     11691     11693
     11667     11665     11691     11697     11667     11672     11675     11676
     11667     11672     11675     11677     11667     11672     11675     11678
     11668     11667     11665     11691     11668     11667     11672     11673
     11668     11667     11672     11674     11668     11667     11672     11675
     11669     11668     11667     11672     11670     11668     11667     11672
     11671     11668     11667     11672     11672     11667     11665     11691
     11672     11675     11678     11679     11672     11675     11678     11680
     11673     11672     11675     11676     11673     11672     11675     11677
     11673     11672     11675     11678     11674     11672     11675     11676
     11674     11672     11675     11677     11674     11672     11675     11678
     11675     11678     11680     11681     11675     11678     11680     11685
     11676     11675     11678     11679     11676     11675     11678     11680
     11677     11675     11678     11679     11677     11675     11678     11680
     11678     11680     11681     11682     11678     11680     11681     11683
     11678     11680     11681     11684     11678     11680     11685     11686
     11678     11680     11685     11687     11678     11680     11685     11688
     11679     11678     11680     11681     11679     11678     11680     11685
     11680     11685     11688     11689     11680     11685     11688     11690
     11681     11680     11685     11686     11681     11680     11685     11687
     11681     11680     11685     11688     11682     11681     11680     11685
     11683     11681     11680     11685     11684     11681     11680     11685
     11686     11685     11688     11689     11686     11685     11688     11690
     11687     11685     11688     11689     11687     11685     11688     11690
     11691     11697     11700     11701     11691     11697     11700     11702
     11691     11697     11700     11703     11692     11691     11693     11694
     11692     11691     11693     11695     11692     11691     11693     11696
     11692     11691     11697     11698     11692     11691     11697     11699
     11692     11691     11697     11700     11693     11691     11697     11698
     11693     11691     11697     11699     11693     11691     11697     11700
     11694     11693     11691     11697     11695     11693     11691     11697
     11696     11693     11691     11697     11697     11700     11703     11704
     11697     11700     11703     11705     11697     11700     11703     11706
     11698     11697     11700     11701     11698     11697     11700     11702
     11698     11697     11700     11703     11699     11697     11700     11701
     11699     11697     11700     11702     11699     11697     11700     11703
     11700     11703     11706     11707     11700     11703     11706     11708
     11700     11703     11706     11712     11701     11700     11703     11704
     11701     11700     11703     11705     11701     11700     11703     11706
     11702     11700     11703     11704     11702     11700     11703     11705
     11702     11700     11703     11706     11703     11706     11708     11709
     11703     11706     11708     11710     11703     11706     11708     11711
     11703     11706     11712     11713     11703     11706     11712     11714
     11703     11706     11712     11715     11704     11703     11706     11707
     11704     11703     11706     11708     11704     11703     11706     11712
     11705     11703     11706     11707     11705     11703     11706     11708
     11705     11703     11706     11712     11707     11706     11708     11709
     11707     11706     11708     11710     11707     11706     11708     11711
     11707     11706     11712     11713     11707     11706     11712     11714
     11707     11706     11712     11715     11708     11706     11712     11713
     11708     11706     11712     11714     11708     11706     11712     11715
     11709     11708     11706     11712     11710     11708     11706     11712
     11711     11708     11706     11712     11716     11717     11732     11733
     11716     11717     11732     11734     11716     11717     11732     11738
     11717     11716     11720     11721     11717     11716     11720     11722
     11717     11716     11720     11723     11717     11716     11724     11725
     11717     11716     11724     11726     11717     11716     11724     11727
     11717     11716     11728     11729     11717     11716     11728     11730
     11717     11716     11728     11731     11717     11732     11738     11735
     11718     11717     11716     11720     11718     11717     11716     11724
     11718     11717     11716     11728     11718     11717     11732     11733
     11718     11717     11732     11734     11718     11717     11732     11738
     11719     11717     11716     11720     11719     11717     11716     11724
     11719     11717     11716     11728     11719     11717     11732     11733
     11719     11717     11732     11734     11719     11717     11732     11738
     11720     11716     11717     11732     11720     11716     11724     11725
     11720     11716     11724     11726     11720     11716     11724     11727
     11720     11716     11728     11729     11720     11716     11728     11730
     11720     11716     11728     11731     11721     11720     11716     11724
     11721     11720     11716     11728     11722     11720     11716     11724
     11722     11720     11716     11728     11723     11720     11716     11724
     11723     11720     11716     11728     11724     11716     11717     11732
     11724     11716     11728     11729     11724     11716     11728     11730
     11724     11716     11728     11731     11725     11724     11716     11728
     11726     11724     11716     11728     11727     11724     11716     11728
     11728     11716     11717     11732     11732     11738     11735     11736
     11732     11738     11735     11737     11732     11738     11735     11739
     11733     11732     11738     11735     11734     11732     11738     11735
     11735     11739     11740     11741     11735     11739     11740     11742
     11735     11739     11740     11743     11736     11735     11739     11740
     11737     11735     11739     11740     11738     11735     11739     11740
     11739     11740     11743     11744     11739     11740     11743     11745
     11739     11740     11743     11751     11740     11743     11745     11746
     11740     11743     11751     11752     11740     11743     11751     11753
     11740     11743     11751     11754     11741     11740     11743     11744
     11741     11740     11743     11745     11741     11740     11743     11751
     11742     11740     11743     11744     11742     11740     11743     11745
     11742     11740     11743     11751     11743     11745     11746     11747
     11743     11745     11746     11748     11743     11751     11754     11755
     11744     11743     11745     11746     11744     11743     11751     11752
     11744     11743     11751     11753     11744     11743     11751     11754
     11745     11743     11751     11752     11745     11743     11751     11753
     11745     11743     11751     11754     11745     11746     11748     11749
     11745     11746     11748     11750     11745     11746     11748     11760
     11746     11745     11743     11751     11746     11748     11760     11761
     11746     11748     11760     11762     11746     11748     11760     11763
     11747     11746     11748     11749     11747     11746     11748     11750
     11747     11746     11748     11760     11748     11760     11763     11764
     11748     11760     11763     11765     11748     11760     11763     11766
     11749     11748     11760     11761     11749     11748     11760     11762
     11749     11748     11760     11763     11750     11748     11760     11761
     11750     11748     11760     11762     11750     11748     11760     11763
     11751     11754     11755     11756     11751     11754     11755     11757
     11752     11751     11754     11755     11753     11751     11754     11755
     11754     11755     11757     11758     11754     11755     11757     11759
     11754     11755     11757     11807     11755     11757     11807     11808
     11755     11757     11807     11809     11755     11757     11807     11810
     11756     11755     11757     11758     11756     11755     11757     11759
     11756     11755     11757     11807     11757     11807     11810     11811
     11757     11807     11810     11812     11757     11807     11810     11813
     11758     11757     11807     11808     11758     11757     11807     11809
     11758     11757     11807     11810     11759     11757     11807     11808
     11759     11757     11807     11809     11759     11757     11807     11810
     11760     11763     11766     11767     11760     11763     11766     11768
     11760     11763     11766     11769     11761     11760     11763     11764
     11761     11760     11763     11765     11761     11760     11763     11766
     11762     11760     11763     11764     11762     11760     11763     11765
     11762     11760     11763     11766     11763     11766     11769     11770
     11763     11766     11769     11771     11763     11766     11769     11772
     11764     11763     11766     11767     11764     11763     11766     11768
     11764     11763     11766     11769     11765     11763     11766     11767
     11765     11763     11766     11768     11765     11763     11766     11769
     11766     11769     11772     11773     11766     11769     11772     11774
     11766     11769     11772     11775     11767     11766     11769     11770
     11767     11766     11769     11771     11767     11766     11769     11772
     11768     11766     11769     11770     11768     11766     11769     11771
     11768     11766     11769     11772     11769     11772     11775     11776
     11769     11772     11775     11777     11769     11772     11775     11778
     11770     11769     11772     11773     11770     11769     11772     11774
     11770     11769     11772     11775     11771     11769     11772     11773
     11771     11769     11772     11774     11771     11769     11772     11775
     11772     11775     11778     11779     11772     11775     11778     11780
     11773     11772     11775     11776     11773     11772     11775     11777
     11773     11772     11775     11778     11774     11772     11775     11776
     11774     11772     11775     11777     11774     11772     11775     11778
     11775     11778     11780     11781     11775     11778     11780     11782
     11776     11775     11778     11779     11776     11775     11778     11780
     11777     11775     11778     11779     11777     11775     11778     11780
     11778     11780     11782     11783     11778     11780     11782     11784
     11778     11780     11782     11785     11779     11778     11780     11781
     11779     11778     11780     11782     11780     11782     11785     11786
     11780     11782     11785     11787     11780     11782     11785     11788
     11781     11780     11782     11783     11781     11780     11782     11784
     11781     11780     11782     11785     11782     11785     11788     11789
     11782     11785     11788     11790     11782     11785     11788     11791
     11783     11782     11785     11786     11783     11782     11785     11787
     11783     11782     11785     11788     11784     11782     11785     11786
     11784     11782     11785     11787     11784     11782     11785     11788
     11785     11788     11791     11792     11785     11788     11791     11793
     11785     11788     11791     11794     11786     11785     11788     11789
     11786     11785     11788     11790     11786     11785     11788     11791
     11787     11785     11788     11789     11787     11785     11788     11790
     11787     11785     11788     11791     11788     11791     11794     11795
     11788     11791     11794     11796     11788     11791     11794     11797
     11789     11788     11791     11792     11789     11788     11791     11793
     11789     11788     11791     11794     11790     11788     11791     11792
     11790     11788     11791     11793     11790     11788     11791     11794
     11791     11794     11797     11798     11791     11794     11797     11799
     11791     11794     11797     11800     11792     11791     11794     11795
     11792     11791     11794     11796     11792     11791     11794     11797
     11793     11791     11794     11795     11793     11791     11794     11796
     11793     11791     11794     11797     11794     11797     11800     11801
     11794     11797     11800     11802     11794     11797     11800     11803
     11795     11794     11797     11798     11795     11794     11797     11799
     11795     11794     11797     11800     11796     11794     11797     11798
     11796     11794     11797     11799     11796     11794     11797     11800
     11797     11800     11803     11804     11797     11800     11803     11805
     11797     11800     11803     11806     11798     11797     11800     11801
     11798     11797     11800     11802     11798     11797     11800     11803
     11799     11797     11800     11801     11799     11797     11800     11802
     11799     11797     11800     11803     11801     11800     11803     11804
     11801     11800     11803     11805     11801     11800     11803     11806
     11802     11800     11803     11804     11802     11800     11803     11805
     11802     11800     11803     11806     11807     11810     11813     11814
     11807     11810     11813     11815     11807     11810     11813     11816
     11808     11807     11810     11811     11808     11807     11810     11812
     11808     11807     11810     11813     11809     11807     11810     11811
     11809     11807     11810     11812     11809     11807     11810     11813
     11810     11813     11816     11817     11810     11813     11816     11818
     11810     11813     11816     11819     11811     11810     11813     11814
     11811     11810     11813     11815     11811     11810     11813     11816
     11812     11810     11813     11814     11812     11810     11813     11815
     11812     11810     11813     11816     11813     11816     11819     11820
     11813     11816     11819     11821     11813     11816     11819     11822
     11814     11813     11816     11817     11814     11813     11816     11818
     11814     11813     11816     11819     11815     11813     11816     11817
     11815     11813     11816     11818     11815     11813     11816     11819
     11816     11819     11822     11823     11816     11819     11822     11824
     11816     11819     11822     11825     11817     11816     11819     11820
     11817     11816     11819     11821     11817     11816     11819     11822
     11818     11816     11819     11820     11818     11816     11819     11821
     11818     11816     11819     11822     11819     11822     11825     11826
     11819     11822     11825     11827     11819     11822     11825     11828
     11820     11819     11822     11823     11820     11819     11822     11824
     11820     11819     11822     11825     11821     11819     11822     11823
     11821     11819     11822     11824     11821     11819     11822     11825
     11822     11825     11828     11829     11822     11825     11828     11830
     11822     11825     11828     11831     11823     11822     11825     11826
     11823     11822     11825     11827     11823     11822     11825     11828
     11824     11822     11825     11826     11824     11822     11825     11827
     11824     11822     11825     11828     11825     11828     11831     11832
     11825     11828     11831     11833     11825     11828     11831     11834
     11826     11825     11828     11829     11826     11825     11828     11830
     11826     11825     11828     11831     11827     11825     11828     11829
     11827     11825     11828     11830     11827     11825     11828     11831
     11828     11831     11834     11835     11828     11831     11834     11836
     11828     11831     11834     11837     11829     11828     11831     11832
     11829     11828     11831     11833     11829     11828     11831     11834
     11830     11828     11831     11832     11830     11828     11831     11833
     11830     11828     11831     11834     11831     11834     11837     11838
     11831     11834     11837     11839     11831     11834     11837     11840
     11832     11831     11834     11835     11832     11831     11834     11836
     11832     11831     11834     11837     11833     11831     11834     11835
     11833     11831     11834     11836     11833     11831     11834     11837
     11834     11837     11840     11841     11834     11837     11840     11842
     11834     11837     11840     11843     11835     11834     11837     11838
     11835     11834     11837     11839     11835     11834     11837     11840
     11836     11834     11837     11838     11836     11834     11837     11839
     11836     11834     11837     11840     11837     11840     11843     11844
     11837     11840     11843     11845     11837     11840     11843     11846
     11838     11837     11840     11841     11838     11837     11840     11842
     11838     11837     11840     11843     11839     11837     11840     11841
     11839     11837     11840     11842     11839     11837     11840     11843
     11840     11843     11846     11847     11840     11843     11846     11848
     11840     11843     11846     11849     11841     11840     11843     11844
     11841     11840     11843     11845     11841     11840     11843     11846
     11842     11840     11843     11844     11842     11840     11843     11845
     11842     11840     11843     11846     11844     11843     11846     11847
     11844     11843     11846     11848     11844     11843     11846     11849
     11845     11843     11846     11847     11845     11843     11846     11848
     11845     11843     11846     11849     11850     11854     11857     11858
     11850     11854     11857     11859     11850     11854     11857     11863
     11851     11850     11854     11855     11851     11850     11854     11856
     11851     11850     11854     11857     11852     11850     11854     11855
     11852     11850     11854     11856     11852     11850     11854     11857
     11853     11850     11854     11855     11853     11850     11854     11856
     11853     11850     11854     11857     11854     11857     11863     11860
     11855     11854     11857     11858     11855     11854     11857     11859
     11855     11854     11857     11863     11856     11854     11857     11858
     11856     11854     11857     11859     11856     11854     11857     11863
     11857     11863     11860     11861     11857     11863     11860     11862
     11857     11863     11860     11864     11858     11857     11863     11860
     11859     11857     11863     11860     11860     11864     11865     11866
     11860     11864     11865     11867     11860     11864     11865     11868
     11861     11860     11864     11865     11862     11860     11864     11865
     11863     11860     11864     11865     11864     11865     11868     11869
     11864     11865     11868     11870     11864     11865     11868     11876
     11865     11868     11870     11871     11865     11868     11876     11877
     11865     11868     11876     11878     11865     11868     11876     11879
     11866     11865     11868     11869     11866     11865     11868     11870
     11866     11865     11868     11876     11867     11865     11868     11869
     11867     11865     11868     11870     11867     11865     11868     11876
     11868     11870     11871     11872     11868     11870     11871     11873
     11868     11876     11879     11880     11869     11868     11870     11871
     11869     11868     11876     11877     11869     11868     11876     11878
     11869     11868     11876     11879     11870     11868     11876     11877
     11870     11868     11876     11878     11870     11868     11876     11879
     11870     11871     11873     11874     11870     11871     11873     11875
     11870     11871     11873     11885     11871     11870     11868     11876
     11871     11873     11885     11886     11871     11873     11885     11887
     11871     11873     11885     11888     11872     11871     11873     11874
     11872     11871     11873     11875     11872     11871     11873     11885
     11873     11885     11888     11889     11873     11885     11888     11890
     11873     11885     11888     11891     11874     11873     11885     11886
     11874     11873     11885     11887     11874     11873     11885     11888
     11875     11873     11885     11886     11875     11873     11885     11887
     11875     11873     11885     11888     11876     11879     11880     11881
     11876     11879     11880     11882     11877     11876     11879     11880
     11878     11876     11879     11880     11879     11880     11882     11883
     11879     11880     11882     11884     11879     11880     11882     11932
     11880     11882     11932     11933     11880     11882     11932     11934
     11880     11882     11932     11935     11881     11880     11882     11883
     11881     11880     11882     11884     11881     11880     11882     11932
     11882     11932     11935     11936     11882     11932     11935     11937
     11882     11932     11935     11938     11883     11882     11932     11933
     11883     11882     11932     11934     11883     11882     11932     11935
     11884     11882     11932     11933     11884     11882     11932     11934
     11884     11882     11932     11935     11885     11888     11891     11892
     11885     11888     11891     11893     11886     11885     11888     11889
     11886     11885     11888     11890     11886     11885     11888     11891
     11887     11885     11888     11889     11887     11885     11888     11890
     11887     11885     11888     11891     11888     11891     11893     11894
     11888     11891     11893     11895     11889     11888     11891     11892
     11889     11888     11891     11893     11890     11888     11891     11892
     11890     11888     11891     11893     11891     11893     11895     11896
     11891     11893     11895     11897     11891     11893     11895     11898
     11892     11891     11893     11894     11892     11891     11893     11895
     11893     11895     11898     11899     11893     11895     11898     11900
     11894     11893     11895     11896     11894     11893     11895     11897
     11894     11893     11895     11898     11895     11898     11900     11901
     11895     11898     11900     11902     11896     11895     11898     11899
     11896     11895     11898     11900     11897     11895     11898     11899
     11897     11895     11898     11900     11898     11900     11902     11903
     11898     11900     11902     11904     11898     11900     11902     11905
     11899     11898     11900     11901     11899     11898     11900     11902
     11900     11902     11905     11906     11900     11902     11905     11907
     11901     11900     11902     11903     11901     11900     11902     11904
     11901     11900     11902     11905     11902     11905     11907     11908
     11902     11905     11907     11909     11903     11902     11905     11906
     11903     11902     11905     11907     11904     11902     11905     11906
     11904     11902     11905     11907     11905     11907     11909     11910
     11905     11907     11909     11911     11905     11907     11909     11912
     11906     11905     11907     11908     11906     11905     11907     11909
     11907     11909     11912     11913     11907     11909     11912     11914
     11908     11907     11909     11910     11908     11907     11909     11911
     11908     11907     11909     11912     11909     11912     11914     11915
     11909     11912     11914     11916     11910     11909     11912     11913
     11910     11909     11912     11914     11911     11909     11912     11913
     11911     11909     11912     11914     11912     11914     11916     11917
     11912     11914     11916     11918     11912     11914     11916     11919
     11913     11912     11914     11915     11913     11912     11914     11916
     11914     11916     11919     11920     11914     11916     11919     11921
     11914     11916     11919     11922     11915     11914     11916     11917
     11915     11914     11916     11918     11915     11914     11916     11919
     11916     11919     11922     11923     11916     11919     11922     11924
     11916     11919     11922     11925     11917     11916     11919     11920
     11917     11916     11919     11921     11917     11916     11919     11922
     11918     11916     11919     11920     11918     11916     11919     11921
     11918     11916     11919     11922     11919     11922     11925     11926
     11919     11922     11925     11927     11919     11922     11925     11928
     11920     11919     11922     11923     11920     11919     11922     11924
     11920     11919     11922     11925     11921     11919     11922     11923
     11921     11919     11922     11924     11921     11919     11922     11925
     11922     11925     11928     11929     11922     11925     11928     11930
     11922     11925     11928     11931     11923     11922     11925     11926
     11923     11922     11925     11927     11923     11922     11925     11928
     11924     11922     11925     11926     11924     11922     11925     11927
     11924     11922     11925     11928     11926     11925     11928     11929
     11926     11925     11928     11930     11926     11925     11928     11931
     11927     11925     11928     11929     11927     11925     11928     11930
     11927     11925     11928     11931     11932     11935     11938     11939
     11932     11935     11938     11940     11932     11935     11938     11941
     11933     11932     11935     11936     11933     11932     11935     11937
     11933     11932     11935     11938     11934     11932     11935     11936
     11934     11932     11935     11937     11934     11932     11935     11938
     11935     11938     11941     11942     11935     11938     11941     11943
     11935     11938     11941     11944     11936     11935     11938     11939
     11936     11935     11938     11940     11936     11935     11938     11941
     11937     11935     11938     11939     11937     11935     11938     11940
     11937     11935     11938     11941     11938     11941     11944     11945
     11938     11941     11944     11946     11938     11941     11944     11947
     11939     11938     11941     11942     11939     11938     11941     11943
     11939     11938     11941     11944     11940     11938     11941     11942
     11940     11938     11941     11943     11940     11938     11941     11944
     11941     11944     11947     11948     11941     11944     11947     11949
     11941     11944     11947     11950     11942     11941     11944     11945
     11942     11941     11944     11946     11942     11941     11944     11947
     11943     11941     11944     11945     11943     11941     11944     11946
     11943     11941     11944     11947     11944     11947     11950     11951
     11944     11947     11950     11952     11944     11947     11950     11953
     11945     11944     11947     11948     11945     11944     11947     11949
     11945     11944     11947     11950     11946     11944     11947     11948
     11946     11944     11947     11949     11946     11944     11947     11950
     11947     11950     11953     11954     11947     11950     11953     11955
     11947     11950     11953     11956     11948     11947     11950     11951
     11948     11947     11950     11952     11948     11947     11950     11953
     11949     11947     11950     11951     11949     11947     11950     11952
     11949     11947     11950     11953     11950     11953     11956     11957
     11950     11953     11956     11958     11950     11953     11956     11959
     11951     11950     11953     11954     11951     11950     11953     11955
     11951     11950     11953     11956     11952     11950     11953     11954
     11952     11950     11953     11955     11952     11950     11953     11956
     11953     11956     11959     11960     11953     11956     11959     11961
     11953     11956     11959     11962     11954     11953     11956     11957
     11954     11953     11956     11958     11954     11953     11956     11959
     11955     11953     11956     11957     11955     11953     11956     11958
     11955     11953     11956     11959     11956     11959     11962     11963
     11956     11959     11962     11964     11956     11959     11962     11965
     11957     11956     11959     11960     11957     11956     11959     11961
     11957     11956     11959     11962     11958     11956     11959     11960
     11958     11956     11959     11961     11958     11956     11959     11962
     11959     11962     11965     11966     11959     11962     11965     11967
     11959     11962     11965     11968     11960     11959     11962     11963
     11960     11959     11962     11964     11960     11959     11962     11965
     11961     11959     11962     11963     11961     11959     11962     11964
     11961     11959     11962     11965     11962     11965     11968     11969
     11962     11965     11968     11970     11962     11965     11968     11971
     11963     11962     11965     11966     11963     11962     11965     11967
     11963     11962     11965     11968     11964     11962     11965     11966
     11964     11962     11965     11967     11964     11962     11965     11968
     11965     11968     11971     11972     11965     11968     11971     11973
     11965     11968     11971     11974     11966     11965     11968     11969
     11966     11965     11968     11970     11966     11965     11968     11971
     11967     11965     11968     11969     11967     11965     11968     11970
     11967     11965     11968     11971     11968     11971     11974     11975
     11968     11971     11974     11976     11968     11971     11974     11977
     11969     11968     11971     11972     11969     11968     11971     11973
     11969     11968     11971     11974     11970     11968     11971     11972
     11970     11968     11971     11973     11970     11968     11971     11974
     11971     11974     11977     11978     11971     11974     11977     11979
     11971     11974     11977     11980     11972     11971     11974     11975
     11972     11971     11974     11976     11972     11971     11974     11977
     11973     11971     11974     11975     11973     11971     11974     11976
     11973     11971     11974     11977     11975     11974     11977     11978
     11975     11974     11977     11979     11975     11974     11977     11980
     11976     11974     11977     11978     11976     11974     11977     11979
     11976     11974     11977     11980     11981     11994     11997     11998
     11981     11994     11997     11999     11981     11994     11997     12004
     11982     11981     11986     11987     11982     11981     11986     11988
     11982     11981     11986     11989     11982     11981     11990     11991
     11982     11981     11990     11992     11982     11981     11990     11993
     11982     11981     11994     11995     11982     11981     11994     11996
     11982     11981     11994     11997     11983     11982     11981     11986
     11983     11982     11981     11990     11983     11982     11981     11994
     11984     11982     11981     11986     11984     11982     11981     11990
     11984     11982     11981     11994     11985     11982     11981     11986
     11985     11982     11981     11990     11985     11982     11981     11994
     11986     11981     11990     11991     11986     11981     11990     11992
     11986     11981     11990     11993     11986     11981     11994     11995
     11986     11981     11994     11996     11986     11981     11994     11997
     11987     11986     11981     11990     11987     11986     11981     11994
     11988     11986     11981     11990     11988     11986     11981     11994
     11989     11986     11981     11990     11989     11986     11981     11994
     11990     11981     11994     11995     11990     11981     11994     11996
     11990     11981     11994     11997     11991     11990     11981     11994
     11992     11990     11981     11994     11993     11990     11981     11994
     11994     11997     12004     12000     11995     11994     11997     11998
     11995     11994     11997     11999     11995     11994     11997     12004
     11996     11994     11997     11998     11996     11994     11997     11999
     11996     11994     11997     12004     11997     12004     12000     12001
     11997     12004     12000     12002     11997     12004     12000     12003
     11998     11997     12004     12000     11999     11997     12004     12000
     12000     12003     12005     12006     12000     12003     12005     12007
     12000     12003     12005     12010     12001     12000     12003     12005
     12002     12000     12003     12005     12003     12005     12010     12008
     12003     12005     12010     12011     12003     12005     12010     12012
     12004     12000     12003     12005     12005     12010     12008     12009
     12005     12010     12008     12060     12005     12010     12012     12013
     12005     12010     12012     12014     12005     12010     12012     12016
     12006     12005     12010     12008     12006     12005     12010     12011
     12006     12005     12010     12012     12007     12005     12010     12008
     12007     12005     12010     12011     12007     12005     12010     12012
     12008     12010     12012     12013     12008     12010     12012     12014
     12008     12010     12012     12016     12008     12060     12062     12063
     12008     12060     12062     12064     12008     12060     12062     12065
     12009     12008     12010     12011     12009     12008     12010     12012
     12009     12008     12060     12061     12009     12008     12060     12062
     12010     12008     12060     12061     12010     12008     12060     12062
     12010     12012     12014     12015     12010     12012     12016     12017
     12010     12012     12016     12018     12011     12010     12008     12060
     12011     12010     12012     12013     12011     12010     12012     12014
     12011     12010     12012     12016     12012     12010     12008     12060
     12012     12016     12018     12019     12012     12016     12018     12020
     12013     12012     12014     12015     12013     12012     12016     12017
     12013     12012     12016     12018     12014     12012     12016     12017
     12014     12012     12016     12018     12015     12014     12012     12016
     12016     12018     12020     12021     12016     12018     12020     12022
     12016     12018     12020     12023     12017     12016     12018     12019
     12017     12016     12018     12020     12018     12020     12023     12024
     12018     12020     12023     12025     12018     12020     12023     12026
     12019     12018     12020     12021     12019     12018     12020     12022
     12019     12018     12020     12023     12020     12023     12026     12027
     12020     12023     12026     12028     12020     12023     12026     12029
     12021     12020     12023     12024     12021     12020     12023     12025
     12021     12020     12023     12026     12022     12020     12023     12024
     12022     12020     12023     12025     12022     12020     12023     12026
     12023     12026     12029     12030     12023     12026     12029     12031
     12023     12026     12029     12032     12024     12023     12026     12027
     12024     12023     12026     12028     12024     12023     12026     12029
     12025     12023     12026     12027     12025     12023     12026     12028
     12025     12023     12026     12029     12026     12029     12032     12033
     12026     12029     12032     12034     12026     12029     12032     12035
     12027     12026     12029     12030     12027     12026     12029     12031
     12027     12026     12029     12032     12028     12026     12029     12030
     12028     12026     12029     12031     12028     12026     12029     12032
     12029     12032     12035     12036     12029     12032     12035     12037
     12029     12032     12035     12038     12030     12029     12032     12033
     12030     12029     12032     12034     12030     12029     12032     12035
     12031     12029     12032     12033     12031     12029     12032     12034
     12031     12029     12032     12035     12032     12035     12038     12039
     12032     12035     12038     12040     12032     12035     12038     12041
     12033     12032     12035     12036     12033     12032     12035     12037
     12033     12032     12035     12038     12034     12032     12035     12036
     12034     12032     12035     12037     12034     12032     12035     12038
     12035     12038     12041     12042     12035     12038     12041     12043
     12035     12038     12041     12044     12036     12035     12038     12039
     12036     12035     12038     12040     12036     12035     12038     12041
     12037     12035     12038     12039     12037     12035     12038     12040
     12037     12035     12038     12041     12038     12041     12044     12045
     12038     12041     12044     12046     12038     12041     12044     12047
     12039     12038     12041     12042     12039     12038     12041     12043
     12039     12038     12041     12044     12040     12038     12041     12042
     12040     12038     12041     12043     12040     12038     12041     12044
     12041     12044     12047     12048     12041     12044     12047     12049
     12041     12044     12047     12050     12042     12041     12044     12045
     12042     12041     12044     12046     12042     12041     12044     12047
     12043     12041     12044     12045     12043     12041     12044     12046
     12043     12041     12044     12047     12044     12047     12050     12051
     12044     12047     12050     12052     12044     12047     12050     12053
     12045     12044     12047     12048     12045     12044     12047     12049
     12045     12044     12047     12050     12046     12044     12047     12048
     12046     12044     12047     12049     12046     12044     12047     12050
     12047     12050     12053     12054     12047     12050     12053     12055
     12047     12050     12053     12056     12048     12047     12050     12051
     12048     12047     12050     12052     12048     12047     12050     12053
     12049     12047     12050     12051     12049     12047     12050     12052
     12049     12047     12050     12053     12050     12053     12056     12057
     12050     12053     12056     12058     12050     12053     12056     12059
     12051     12050     12053     12054     12051     12050     12053     12055
     12051     12050     12053     12056     12052     12050     12053     12054
     12052     12050     12053     12055     12052     12050     12053     12056
     12054     12053     12056     12057     12054     12053     12056     12058
     12054     12053     12056     12059     12055     12053     12056     12057
     12055     12053     12056     12058     12055     12053     12056     12059
     12060     12062     12065     12066     12060     12062     12065     12067
     12060     12062     12065     12068     12061     12060     12062     12063
     12061     12060     12062     12064     12061     12060     12062     12065
     12062     12065     12068     12069     12062     12065     12068     12070
     12062     12065     12068     12071     12063     12062     12065     12066
     12063     12062     12065     12067     12063     12062     12065     12068
     12064     12062     12065     12066     12064     12062     12065     12067
     12064     12062     12065     12068     12065     12068     12071     12072
     12065     12068     12071     12073     12065     12068     12071     12074
     12066     12065     12068     12069     12066     12065     12068     12070
     12066     12065     12068     12071     12067     12065     12068     12069
     12067     12065     12068     12070     12067     12065     12068     12071
     12068     12071     12074     12075     12068     12071     12074     12076
     12068     12071     12074     12077     12069     12068     12071     12072
     12069     12068     12071     12073     12069     12068     12071     12074
     12070     12068     12071     12072     12070     12068     12071     12073
     12070     12068     12071     12074     12071     12074     12077     12078
     12071     12074     12077     12079     12071     12074     12077     12080
     12072     12071     12074     12075     12072     12071     12074     12076
     12072     12071     12074     12077     12073     12071     12074     12075
     12073     12071     12074     12076     12073     12071     12074     12077
     12074     12077     12080     12081     12074     12077     12080     12082
     12074     12077     12080     12083     12075     12074     12077     12078
     12075     12074     12077     12079     12075     12074     12077     12080
     12076     12074     12077     12078     12076     12074     12077     12079
     12076     12074     12077     12080     12077     12080     12083     12084
     12077     12080     12083     12085     12078     12077     12080     12081
     12078     12077     12080     12082     12078     12077     12080     12083
     12079     12077     12080     12081     12079     12077     12080     12082
     12079     12077     12080     12083     12080     12083     12085     12086
     12080     12083     12085     12087     12081     12080     12083     12084
     12081     12080     12083     12085     12082     12080     12083     12084
     12082     12080     12083     12085     12083     12085     12087     12088
     12083     12085     12087     12089     12083     12085     12087     12090
     12084     12083     12085     12086     12084     12083     12085     12087
     12085     12087     12090     12091     12085     12087     12090     12092
     12085     12087     12090     12093     12086     12085     12087     12088
     12086     12085     12087     12089     12086     12085     12087     12090
     12087     12090     12093     12094     12087     12090     12093     12095
     12087     12090     12093     12096     12088     12087     12090     12091
     12088     12087     12090     12092     12088     12087     12090     12093
     12089     12087     12090     12091     12089     12087     12090     12092
     12089     12087     12090     12093     12090     12093     12096     12097
     12090     12093     12096     12098     12090     12093     12096     12099
     12091     12090     12093     12094     12091     12090     12093     12095
     12091     12090     12093     12096     12092     12090     12093     12094
     12092     12090     12093     12095     12092     12090     12093     12096
     12093     12096     12099     12100     12093     12096     12099     12101
     12093     12096     12099     12102     12094     12093     12096     12097
     12094     12093     12096     12098     12094     12093     12096     12099
     12095     12093     12096     12097     12095     12093     12096     12098
     12095     12093     12096     12099     12096     12099     12102     12103
     12096     12099     12102     12104     12096     12099     12102     12105
     12097     12096     12099     12100     12097     12096     12099     12101
     12097     12096     12099     12102     12098     12096     12099     12100
     12098     12096     12099     12101     12098     12096     12099     12102
     12099     12102     12105     12106     12099     12102     12105     12107
     12099     12102     12105     12108     12100     12099     12102     12103
     12100     12099     12102     12104     12100     12099     12102     12105
     12101     12099     12102     12103     12101     12099     12102     12104
     12101     12099     12102     12105     12102     12105     12108     12109
     12102     12105     12108     12110     12102     12105     12108     12111
     12103     12102     12105     12106     12103     12102     12105     12107
     12103     12102     12105     12108     12104     12102     12105     12106
     12104     12102     12105     12107     12104     12102     12105     12108
     12106     12105     12108     12109     12106     12105     12108     12110
     12106     12105     12108     12111     12107     12105     12108     12109
     12107     12105     12108     12110     12107     12105     12108     12111
     12112     12116     12119     12120     12112     12116     12119     12150
     12112     12158     12155     12150     12112     12158     12155     12156
     12112     12158     12155     12157     12113     12112     12114     12115
     12113     12112     12116     12117     12113     12112     12116     12118
     12113     12112     12116     12119     12113     12112     12158     12155
     12113     12112     12158     12159     12113     12112     12158     12160
     12114     12112     12116     12117     12114     12112     12116     12118
     12114     12112     12116     12119     12114     12112     12158     12155
     12114     12112     12158     12159     12114     12112     12158     12160
     12115     12114     12112     12116     12115     12114     12112     12158
     12116     12112     12158     12155     12116     12112     12158     12159
     12116     12112     12158     12160     12116     12119     12120     12121
     12116     12119     12120     12122     12116     12119     12150     12148
     12116     12119     12150     12151     12116     12119     12150     12155
     12117     12116     12112     12158     12117     12116     12119     12120
     12117     12116     12119     12150     12118     12116     12112     12158
     12118     12116     12119     12120     12118     12116     12119     12150
     12119     12116     12112     12158     12119     12120     12122     12123
     12119     12120     12122     12124     12119     12120     12122     12125
     12119     12150     12148     12125     12119     12150     12148     12145
     12119     12150     12148     12149     12119     12150     12151     12152
     12119     12150     12151     12153     12119     12150     12151     12154
     12119     12150     12155     12156     12119     12150     12155     12157
     12119     12150     12155     12158     12120     12119     12150     12148
     12120     12119     12150     12151     12120     12119     12150     12155
     12120     12122     12125     12126     12120     12122     12125     12127
     12120     12122     12125     12148     12121     12120     12119     12150
     12121     12120     12122     12123     12121     12120     12122     12124
     12121     12120     12122     12125     12122     12120     12119     12150
     12122     12125     12127     12128     12122     12125     12127     12129
     12122     12125     12127     12137     12122     12125     12148     12145
     12122     12125     12148     12149     12122     12125     12148     12150
     12123     12122     12125     12126     12123     12122     12125     12127
     12123     12122     12125     12148     12124     12122     12125     12126
     12124     12122     12125     12127     12124     12122     12125     12148
     12125     12127     12129     12130     12125     12127     12129     12131
     12125     12127     12129     12132     12125     12127     12137     12135
     12125     12127     12137     12138     12125     12127     12137     12142
     12125     12148     12145     12142     12125     12148     12145     12146
     12125     12148     12145     12147     12125     12148     12150     12151
     12125     12148     12150     12155     12126     12125     12127     12128
     12126     12125     12127     12129     12126     12125     12127     12137
     12126     12125     12148     12145     12126     12125     12148     12149
     12126     12125     12148     12150     12127     12125     12148     12145
     12127     12125     12148     12149     12127     12125     12148     12150
     12127     12129     12132     12133     12127     12129     12132     12134
     12127     12129     12132     12135     12127     12137     12135     12132
     12127     12137     12135     12136     12127     12137     12135     12161
     12127     12137     12138     12139     12127     12137     12138     12140
     12127     12137     12138     12141     12127     12137     12142     12143
     12127     12137     12142     12144     12127     12137     12142     12145
     12128     12127     12125     12148     12128     12127     12129     12130
     12128     12127     12129     12131     12128     12127     12129     12132
     12128     12127     12137     12135     12128     12127     12137     12138
     12128     12127     12137     12142     12129     12127     12125     12148
     12129     12127     12137     12135     12129     12127     12137     12138
     12129     12127     12137     12142     12129     12132     12135     12136
     12129     12132     12135     12137     12129     12132     12135     12161
     12130     12129     12127     12137     12130     12129     12132     12133
     12130     12129     12132     12134     12130     12129     12132     12135
     12131     12129     12127     12137     12131     12129     12132     12133
     12131     12129     12132     12134     12131     12129     12132     12135
     12132     12129     12127     12137     12132     12135     12137     12138
     12132     12135     12137     12142     12132     12135     12161     12162
     12132     12135     12161     12163     12132     12135     12161     12167
     12133     12132     12135     12136     12133     12132     12135     12137
     12133     12132     12135     12161     12134     12132     12135     12136
     12134     12132     12135     12137     12134     12132     12135     12161
     12135     12137     12138     12139     12135     12137     12138     12140
     12135     12137     12138     12141     12135     12137     12142     12143
     12135     12137     12142     12144     12135     12137     12142     12145
     12135     12161     12163     12164     12135     12161     12163     12165
     12135     12161     12163     12166     12135     12161     12167     12168
     12135     12161     12167     12169     12135     12161     12167     12170
     12136     12135     12137     12138     12136     12135     12137     12142
     12136     12135     12161     12162     12136     12135     12161     12163
     12136     12135     12161     12167     12137     12127     12125     12148
     12137     12135     12161     12162     12137     12135     12161     12163
     12137     12135     12161     12167     12137     12142     12145     12146
     12137     12142     12145     12147     12137     12142     12145     12148
     12138     12137     12135     12161     12138     12137     12142     12143
     12138     12137     12142     12144     12138     12137     12142     12145
     12139     12138     12137     12142     12140     12138     12137     12142
     12141     12138     12137     12142     12142     12137     12135     12161
     12142     12145     12148     12149     12142     12145     12148     12150
     12143     12142     12145     12146     12143     12142     12145     12147
     12143     12142     12145     12148     12144     12142     12145     12146
     12144     12142     12145     12147     12144     12142     12145     12148
     12145     12148     12150     12151     12145     12148     12150     12155
     12146     12145     12148     12149     12146     12145     12148     12150
     12147     12145     12148     12149     12147     12145     12148     12150
     12148     12150     12151     12152     12148     12150     12151     12153
     12148     12150     12151     12154     12148     12150     12155     12156
     12148     12150     12155     12157     12148     12150     12155     12158
     12149     12148     12150     12151     12149     12148     12150     12155
     12150     12155     12158     12159     12150     12155     12158     12160
     12151     12150     12155     12156     12151     12150     12155     12157
     12151     12150     12155     12158     12152     12151     12150     12155
     12153     12151     12150     12155     12154     12151     12150     12155
     12156     12155     12158     12159     12156     12155     12158     12160
     12157     12155     12158     12159     12157     12155     12158     12160
     12161     12167     12170     12171     12161     12167     12170     12172
     12161     12167     12170     12173     12162     12161     12163     12164
     12162     12161     12163     12165     12162     12161     12163     12166
     12162     12161     12167     12168     12162     12161     12167     12169
     12162     12161     12167     12170     12163     12161     12167     12168
     12163     12161     12167     12169     12163     12161     12167     12170
     12164     12163     12161     12167     12165     12163     12161     12167
     12166     12163     12161     12167     12167     12170     12173     12174
     12167     12170     12173     12175     12167     12170     12173     12176
     12168     12167     12170     12171     12168     12167     12170     12172
     12168     12167     12170     12173     12169     12167     12170     12171
     12169     12167     12170     12172     12169     12167     12170     12173
     12170     12173     12176     12177     12170     12173     12176     12178
     12170     12173     12176     12182     12171     12170     12173     12174
     12171     12170     12173     12175     12171     12170     12173     12176
     12172     12170     12173     12174     12172     12170     12173     12175
     12172     12170     12173     12176     12173     12176     12178     12179
     12173     12176     12178     12180     12173     12176     12178     12181
     12173     12176     12182     12183     12173     12176     12182     12184
     12173     12176     12182     12185     12174     12173     12176     12177
     12174     12173     12176     12178     12174     12173     12176     12182
     12175     12173     12176     12177     12175     12173     12176     12178
     12175     12173     12176     12182     12177     12176     12178     12179
     12177     12176     12178     12180     12177     12176     12178     12181
     12177     12176     12182     12183     12177     12176     12182     12184
     12177     12176     12182     12185     12178     12176     12182     12183
     12178     12176     12182     12184     12178     12176     12182     12185
     12179     12178     12176     12182     12180     12178     12176     12182
     12181     12178     12176     12182     12186     12190     12193     12194
     12186     12190     12193     12224     12186     12232     12229     12224
     12186     12232     12229     12230     12186     12232     12229     12231
     12187     12186     12188     12189     12187     12186     12190     12191
     12187     12186     12190     12192     12187     12186     12190     12193
     12187     12186     12232     12229     12187     12186     12232     12233
     12187     12186     12232     12234     12188     12186     12190     12191
     12188     12186     12190     12192     12188     12186     12190     12193
     12188     12186     12232     12229     12188     12186     12232     12233
     12188     12186     12232     12234     12189     12188     12186     12190
     12189     12188     12186     12232     12190     12186     12232     12229
     12190     12186     12232     12233     12190     12186     12232     12234
     12190     12193     12194     12195     12190     12193     12194     12196
     12190     12193     12224     12222     12190     12193     12224     12225
     12190     12193     12224     12229     12191     12190     12186     12232
     12191     12190     12193     12194     12191     12190     12193     12224
     12192     12190     12186     12232     12192     12190     12193     12194
     12192     12190     12193     12224     12193     12190     12186     12232
     12193     12194     12196     12197     12193     12194     12196     12198
     12193     12194     12196     12199     12193     12224     12222     12199
     12193     12224     12222     12219     12193     12224     12222     12223
     12193     12224     12225     12226     12193     12224     12225     12227
     12193     12224     12225     12228     12193     12224     12229     12230
     12193     12224     12229     12231     12193     12224     12229     12232
     12194     12193     12224     12222     12194     12193     12224     12225
     12194     12193     12224     12229     12194     12196     12199     12200
     12194     12196     12199     12201     12194     12196     12199     12222
     12195     12194     12193     12224     12195     12194     12196     12197
     12195     12194     12196     12198     12195     12194     12196     12199
     12196     12194     12193     12224     12196     12199     12201     12202
     12196     12199     12201     12203     12196     12199     12201     12211
     12196     12199     12222     12219     12196     12199     12222     12223
     12196     12199     12222     12224     12197     12196     12199     12200
     12197     12196     12199     12201     12197     12196     12199     12222
     12198     12196     12199     12200     12198     12196     12199     12201
     12198     12196     12199     12222     12199     12201     12203     12204
     12199     12201     12203     12205     12199     12201     12203     12206
     12199     12201     12211     12209     12199     12201     12211     12212
     12199     12201     12211     12216     12199     12222     12219     12216
     12199     12222     12219     12220     12199     12222     12219     12221
     12199     12222     12224     12225     12199     12222     12224     12229
     12200     12199     12201     12202     12200     12199     12201     12203
     12200     12199     12201     12211     12200     12199     12222     12219
     12200     12199     12222     12223     12200     12199     12222     12224
     12201     12199     12222     12219     12201     12199     12222     12223
     12201     12199     12222     12224     12201     12203     12206     12207
     12201     12203     12206     12208     12201     12203     12206     12209
     12201     12211     12209     12206     12201     12211     12209     12210
     12201     12211     12209     12235     12201     12211     12212     12213
     12201     12211     12212     12214     12201     12211     12212     12215
     12201     12211     12216     12217     12201     12211     12216     12218
     12201     12211     12216     12219     12202     12201     12199     12222
     12202     12201     12203     12204     12202     12201     12203     12205
     12202     12201     12203     12206     12202     12201     12211     12209
     12202     12201     12211     12212     12202     12201     12211     12216
     12203     12201     12199     12222     12203     12201     12211     12209
     12203     12201     12211     12212     12203     12201     12211     12216
     12203     12206     12209     12210     12203     12206     12209     12211
     12203     12206     12209     12235     12204     12203     12201     12211
     12204     12203     12206     12207     12204     12203     12206     12208
     12204     12203     12206     12209     12205     12203     12201     12211
     12205     12203     12206     12207     12205     12203     12206     12208
     12205     12203     12206     12209     12206     12203     12201     12211
     12206     12209     12211     12212     12206     12209     12211     12216
     12206     12209     12235     12236     12206     12209     12235     12237
     12206     12209     12235     12241     12207     12206     12209     12210
     12207     12206     12209     12211     12207     12206     12209     12235
     12208     12206     12209     12210     12208     12206     12209     12211
     12208     12206     12209     12235     12209     12211     12212     12213
     12209     12211     12212     12214     12209     12211     12212     12215
     12209     12211     12216     12217     12209     12211     12216     12218
     12209     12211     12216     12219     12209     12235     12237     12238
     12209     12235     12237     12239     12209     12235     12237     12240
     12209     12235     12241     12242     12209     12235     12241     12243
     12209     12235     12241     12244     12210     12209     12211     12212
     12210     12209     12211     12216     12210     12209     12235     12236
     12210     12209     12235     12237     12210     12209     12235     12241
     12211     12201     12199     12222     12211     12209     12235     12236
     12211     12209     12235     12237     12211     12209     12235     12241
     12211     12216     12219     12220     12211     12216     12219     12221
     12211     12216     12219     12222     12212     12211     12209     12235
     12212     12211     12216     12217     12212     12211     12216     12218
     12212     12211     12216     12219     12213     12212     12211     12216
     12214     12212     12211     12216     12215     12212     12211     12216
     12216     12211     12209     12235     12216     12219     12222     12223
     12216     12219     12222     12224     12217     12216     12219     12220
     12217     12216     12219     12221     12217     12216     12219     12222
     12218     12216     12219     12220     12218     12216     12219     12221
     12218     12216     12219     12222     12219     12222     12224     12225
     12219     12222     12224     12229     12220     12219     12222     12223
     12220     12219     12222     12224     12221     12219     12222     12223
     12221     12219     12222     12224     12222     12224     12225     12226
     12222     12224     12225     12227     12222     12224     12225     12228
     12222     12224     12229     12230     12222     12224     12229     12231
     12222     12224     12229     12232     12223     12222     12224     12225
     12223     12222     12224     12229     12224     12229     12232     12233
     12224     12229     12232     12234     12225     12224     12229     12230
     12225     12224     12229     12231     12225     12224     12229     12232
     12226     12225     12224     12229     12227     12225     12224     12229
     12228     12225     12224     12229     12230     12229     12232     12233
     12230     12229     12232     12234     12231     12229     12232     12233
     12231     12229     12232     12234     12235     12241     12244     12245
     12235     12241     12244     12246     12235     12241     12244     12247
     12236     12235     12237     12238     12236     12235     12237     12239
     12236     12235     12237     12240     12236     12235     12241     12242
     12236     12235     12241     12243     12236     12235     12241     12244
     12237     12235     12241     12242     12237     12235     12241     12243
     12237     12235     12241     12244     12238     12237     12235     12241
     12239     12237     12235     12241     12240     12237     12235     12241
     12241     12244     12247     12248     12241     12244     12247     12249
     12241     12244     12247     12250     12242     12241     12244     12245
     12242     12241     12244     12246     12242     12241     12244     12247
     12243     12241     12244     12245     12243     12241     12244     12246
     12243     12241     12244     12247     12244     12247     12250     12251
     12244     12247     12250     12252     12244     12247     12250     12256
     12245     12244     12247     12248     12245     12244     12247     12249
     12245     12244     12247     12250     12246     12244     12247     12248
     12246     12244     12247     12249     12246     12244     12247     12250
     12247     12250     12252     12253     12247     12250     12252     12254
     12247     12250     12252     12255     12247     12250     12256     12257
     12247     12250     12256     12258     12247     12250     12256     12259
     12248     12247     12250     12251     12248     12247     12250     12252
     12248     12247     12250     12256     12249     12247     12250     12251
     12249     12247     12250     12252     12249     12247     12250     12256
     12251     12250     12252     12253     12251     12250     12252     12254
     12251     12250     12252     12255     12251     12250     12256     12257
     12251     12250     12256     12258     12251     12250     12256     12259
     12252     12250     12256     12257     12252     12250     12256     12258
     12252     12250     12256     12259     12253     12252     12250     12256
     12254     12252     12250     12256     12255     12252     12250     12256
     12260     12264     12266     12267     12260     12264     12266     12268
     12260     12264     12269     12270     12260     12264     12269     12271
     12260     12264     12269     12275     12261     12260     12264     12265
     12261     12260     12264     12266     12261     12260     12264     12269
     12262     12260     12264     12265     12262     12260     12264     12266
     12262     12260     12264     12269     12263     12260     12264     12265
     12263     12260     12264     12266     12263     12260     12264     12269
     12264     12269     12275     12272     12265     12264     12266     12267
     12265     12264     12266     12268     12265     12264     12269     12270
     12265     12264     12269     12271     12265     12264     12269     12275
     12266     12264     12269     12270     12266     12264     12269     12271
     12266     12264     12269     12275     12267     12266     12264     12269
     12268     12266     12264     12269     12269     12275     12272     12273
     12269     12275     12272     12274     12269     12275     12272     12276
     12270     12269     12275     12272     12271     12269     12275     12272
     12272     12276     12277     12278     12272     12276     12277     12279
     12272     12276     12277     12280     12273     12272     12276     12277
     12274     12272     12276     12277     12275     12272     12276     12277
     12276     12277     12280     12281     12276     12277     12280     12282
     12276     12277     12280     12288     12277     12280     12282     12283
     12277     12280     12288     12289     12277     12280     12288     12290
     12277     12280     12288     12291     12278     12277     12280     12281
     12278     12277     12280     12282     12278     12277     12280     12288
     12279     12277     12280     12281     12279     12277     12280     12282
     12279     12277     12280     12288     12280     12282     12283     12284
     12280     12282     12283     12285     12280     12288     12291     12292
     12281     12280     12282     12283     12281     12280     12288     12289
     12281     12280     12288     12290     12281     12280     12288     12291
     12282     12280     12288     12289     12282     12280     12288     12290
     12282     12280     12288     12291     12282     12283     12285     12286
     12282     12283     12285     12287     12282     12283     12285     12297
     12283     12282     12280     12288     12283     12285     12297     12298
     12283     12285     12297     12299     12283     12285     12297     12300
     12284     12283     12285     12286     12284     12283     12285     12287
     12284     12283     12285     12297     12285     12297     12300     12301
     12285     12297     12300     12302     12285     12297     12300     12303
     12286     12285     12297     12298     12286     12285     12297     12299
     12286     12285     12297     12300     12287     12285     12297     12298
     12287     12285     12297     12299     12287     12285     12297     12300
     12288     12291     12292     12293     12288     12291     12292     12294
     12289     12288     12291     12292     12290     12288     12291     12292
     12291     12292     12294     12295     12291     12292     12294     12296
     12291     12292     12294     12344     12292     12294     12344     12345
     12292     12294     12344     12346     12292     12294     12344     12347
     12293     12292     12294     12295     12293     12292     12294     12296
     12293     12292     12294     12344     12294     12344     12347     12348
     12294     12344     12347     12349     12294     12344     12347     12350
     12295     12294     12344     12345     12295     12294     12344     12346
     12295     12294     12344     12347     12296     12294     12344     12345
     12296     12294     12344     12346     12296     12294     12344     12347
     12297     12300     12303     12304     12297     12300     12303     12305
     12298     12297     12300     12301     12298     12297     12300     12302
     12298     12297     12300     12303     12299     12297     12300     12301
     12299     12297     12300     12302     12299     12297     12300     12303
     12300     12303     12305     12306     12300     12303     12305     12307
     12301     12300     12303     12304     12301     12300     12303     12305
     12302     12300     12303     12304     12302     12300     12303     12305
     12303     12305     12307     12308     12303     12305     12307     12309
     12303     12305     12307     12310     12304     12303     12305     12306
     12304     12303     12305     12307     12305     12307     12310     12311
     12305     12307     12310     12312     12306     12305     12307     12308
     12306     12305     12307     12309     12306     12305     12307     12310
     12307     12310     12312     12313     12307     12310     12312     12314
     12308     12307     12310     12311     12308     12307     12310     12312
     12309     12307     12310     12311     12309     12307     12310     12312
     12310     12312     12314     12315     12310     12312     12314     12316
     12310     12312     12314     12317     12311     12310     12312     12313
     12311     12310     12312     12314     12312     12314     12317     12318
     12312     12314     12317     12319     12313     12312     12314     12315
     12313     12312     12314     12316     12313     12312     12314     12317
     12314     12317     12319     12320     12314     12317     12319     12321
     12315     12314     12317     12318     12315     12314     12317     12319
     12316     12314     12317     12318     12316     12314     12317     12319
     12317     12319     12321     12322     12317     12319     12321     12323
     12317     12319     12321     12324     12318     12317     12319     12320
     12318     12317     12319     12321     12319     12321     12324     12325
     12319     12321     12324     12326     12320     12319     12321     12322
     12320     12319     12321     12323     12320     12319     12321     12324
     12321     12324     12326     12327     12321     12324     12326     12328
     12322     12321     12324     12325     12322     12321     12324     12326
     12323     12321     12324     12325     12323     12321     12324     12326
     12324     12326     12328     12329     12324     12326     12328     12330
     12324     12326     12328     12331     12325     12324     12326     12327
     12325     12324     12326     12328     12326     12328     12331     12332
     12326     12328     12331     12333     12326     12328     12331     12334
     12327     12326     12328     12329     12327     12326     12328     12330
     12327     12326     12328     12331     12328     12331     12334     12335
     12328     12331     12334     12336     12328     12331     12334     12337
     12329     12328     12331     12332     12329     12328     12331     12333
     12329     12328     12331     12334     12330     12328     12331     12332
     12330     12328     12331     12333     12330     12328     12331     12334
     12331     12334     12337     12338     12331     12334     12337     12339
     12331     12334     12337     12340     12332     12331     12334     12335
     12332     12331     12334     12336     12332     12331     12334     12337
     12333     12331     12334     12335     12333     12331     12334     12336
     12333     12331     12334     12337     12334     12337     12340     12341
     12334     12337     12340     12342     12334     12337     12340     12343
     12335     12334     12337     12338     12335     12334     12337     12339
     12335     12334     12337     12340     12336     12334     12337     12338
     12336     12334     12337     12339     12336     12334     12337     12340
     12338     12337     12340     12341     12338     12337     12340     12342
     12338     12337     12340     12343     12339     12337     12340     12341
     12339     12337     12340     12342     12339     12337     12340     12343
     12344     12347     12350     12351     12344     12347     12350     12352
     12344     12347     12350     12353     12345     12344     12347     12348
     12345     12344     12347     12349     12345     12344     12347     12350
     12346     12344     12347     12348     12346     12344     12347     12349
     12346     12344     12347     12350     12347     12350     12353     12354
     12347     12350     12353     12355     12347     12350     12353     12356
     12348     12347     12350     12351     12348     12347     12350     12352
     12348     12347     12350     12353     12349     12347     12350     12351
     12349     12347     12350     12352     12349     12347     12350     12353
     12350     12353     12356     12357     12350     12353     12356     12358
     12350     12353     12356     12359     12351     12350     12353     12354
     12351     12350     12353     12355     12351     12350     12353     12356
     12352     12350     12353     12354     12352     12350     12353     12355
     12352     12350     12353     12356     12353     12356     12359     12360
     12353     12356     12359     12361     12353     12356     12359     12362
     12354     12353     12356     12357     12354     12353     12356     12358
     12354     12353     12356     12359     12355     12353     12356     12357
     12355     12353     12356     12358     12355     12353     12356     12359
     12356     12359     12362     12363     12356     12359     12362     12364
     12356     12359     12362     12365     12357     12356     12359     12360
     12357     12356     12359     12361     12357     12356     12359     12362
     12358     12356     12359     12360     12358     12356     12359     12361
     12358     12356     12359     12362     12359     12362     12365     12366
     12359     12362     12365     12367     12359     12362     12365     12368
     12360     12359     12362     12363     12360     12359     12362     12364
     12360     12359     12362     12365     12361     12359     12362     12363
     12361     12359     12362     12364     12361     12359     12362     12365
     12362     12365     12368     12369     12362     12365     12368     12370
     12362     12365     12368     12371     12363     12362     12365     12366
     12363     12362     12365     12367     12363     12362     12365     12368
     12364     12362     12365     12366     12364     12362     12365     12367
     12364     12362     12365     12368     12365     12368     12371     12372
     12365     12368     12371     12373     12365     12368     12371     12374
     12366     12365     12368     12369     12366     12365     12368     12370
     12366     12365     12368     12371     12367     12365     12368     12369
     12367     12365     12368     12370     12367     12365     12368     12371
     12368     12371     12374     12375     12368     12371     12374     12376
     12368     12371     12374     12377     12369     12368     12371     12372
     12369     12368     12371     12373     12369     12368     12371     12374
     12370     12368     12371     12372     12370     12368     12371     12373
     12370     12368     12371     12374     12371     12374     12377     12378
     12371     12374     12377     12379     12371     12374     12377     12380
     12372     12371     12374     12375     12372     12371     12374     12376
     12372     12371     12374     12377     12373     12371     12374     12375
     12373     12371     12374     12376     12373     12371     12374     12377
     12374     12377     12380     12381     12374     12377     12380     12382
     12374     12377     12380     12383     12375     12374     12377     12378
     12375     12374     12377     12379     12375     12374     12377     12380
     12376     12374     12377     12378     12376     12374     12377     12379
     12376     12374     12377     12380     12377     12380     12383     12384
     12377     12380     12383     12385     12377     12380     12383     12386
     12378     12377     12380     12381     12378     12377     12380     12382
     12378     12377     12380     12383     12379     12377     12380     12381
     12379     12377     12380     12382     12379     12377     12380     12383
     12380     12383     12386     12387     12380     12383     12386     12388
     12380     12383     12386     12389     12381     12380     12383     12384
     12381     12380     12383     12385     12381     12380     12383     12386
     12382     12380     12383     12384     12382     12380     12383     12385
     12382     12380     12383     12386     12383     12386     12389     12390
     12383     12386     12389     12391     12383     12386     12389     12392
     12384     12383     12386     12387     12384     12383     12386     12388
     12384     12383     12386     12389     12385     12383     12386     12387
     12385     12383     12386     12388     12385     12383     12386     12389
     12387     12386     12389     12390     12387     12386     12389     12391
     12387     12386     12389     12392     12388     12386     12389     12390
     12388     12386     12389     12391     12388     12386     12389     12392
     12393     12394     12409     12410     12393     12394     12409     12411
     12393     12394     12409     12415     12394     12393     12397     12398
     12394     12393     12397     12399     12394     12393     12397     12400
     12394     12393     12401     12402     12394     12393     12401     12403
     12394     12393     12401     12404     12394     12393     12405     12406
     12394     12393     12405     12407     12394     12393     12405     12408
     12394     12409     12415     12412     12395     12394     12393     12397
     12395     12394     12393     12401     12395     12394     12393     12405
     12395     12394     12409     12410     12395     12394     12409     12411
     12395     12394     12409     12415     12396     12394     12393     12397
     12396     12394     12393     12401     12396     12394     12393     12405
     12396     12394     12409     12410     12396     12394     12409     12411
     12396     12394     12409     12415     12397     12393     12394     12409
     12397     12393     12401     12402     12397     12393     12401     12403
     12397     12393     12401     12404     12397     12393     12405     12406
     12397     12393     12405     12407     12397     12393     12405     12408
     12398     12397     12393     12401     12398     12397     12393     12405
     12399     12397     12393     12401     12399     12397     12393     12405
     12400     12397     12393     12401     12400     12397     12393     12405
     12401     12393     12394     12409     12401     12393     12405     12406
     12401     12393     12405     12407     12401     12393     12405     12408
     12402     12401     12393     12405     12403     12401     12393     12405
     12404     12401     12393     12405     12405     12393     12394     12409
     12409     12415     12412     12413     12409     12415     12412     12414
     12409     12415     12412     12416     12410     12409     12415     12412
     12411     12409     12415     12412     12412     12416     12417     12418
     12412     12416     12417     12419     12412     12416     12417     12420
     12413     12412     12416     12417     12414     12412     12416     12417
     12415     12412     12416     12417     12416     12417     12420     12421
     12416     12417     12420     12422     12416     12417     12420     12428
     12417     12420     12422     12423     12417     12420     12428     12429
     12417     12420     12428     12430     12417     12420     12428     12431
     12418     12417     12420     12421     12418     12417     12420     12422
     12418     12417     12420     12428     12419     12417     12420     12421
     12419     12417     12420     12422     12419     12417     12420     12428
     12420     12422     12423     12424     12420     12422     12423     12425
     12420     12428     12431     12432     12421     12420     12422     12423
     12421     12420     12428     12429     12421     12420     12428     12430
     12421     12420     12428     12431     12422     12420     12428     12429
     12422     12420     12428     12430     12422     12420     12428     12431
     12422     12423     12425     12426     12422     12423     12425     12427
     12422     12423     12425     12437     12423     12422     12420     12428
     12423     12425     12437     12438     12423     12425     12437     12439
     12423     12425     12437     12440     12424     12423     12425     12426
     12424     12423     12425     12427     12424     12423     12425     12437
     12425     12437     12440     12441     12425     12437     12440     12442
     12425     12437     12440     12443     12426     12425     12437     12438
     12426     12425     12437     12439     12426     12425     12437     12440
     12427     12425     12437     12438     12427     12425     12437     12439
     12427     12425     12437     12440     12428     12431     12432     12433
     12428     12431     12432     12434     12429     12428     12431     12432
     12430     12428     12431     12432     12431     12432     12434     12435
     12431     12432     12434     12436     12431     12432     12434     12484
     12432     12434     12484     12485     12432     12434     12484     12486
     12432     12434     12484     12487     12433     12432     12434     12435
     12433     12432     12434     12436     12433     12432     12434     12484
     12434     12484     12487     12488     12434     12484     12487     12489
     12434     12484     12487     12490     12435     12434     12484     12485
     12435     12434     12484     12486     12435     12434     12484     12487
     12436     12434     12484     12485     12436     12434     12484     12486
     12436     12434     12484     12487     12437     12440     12443     12444
     12437     12440     12443     12445     12437     12440     12443     12446
     12438     12437     12440     12441     12438     12437     12440     12442
     12438     12437     12440     12443     12439     12437     12440     12441
     12439     12437     12440     12442     12439     12437     12440     12443
     12440     12443     12446     12447     12440     12443     12446     12448
     12440     12443     12446     12449     12441     12440     12443     12444
     12441     12440     12443     12445     12441     12440     12443     12446
     12442     12440     12443     12444     12442     12440     12443     12445
     12442     12440     12443     12446     12443     12446     12449     12450
     12443     12446     12449     12451     12443     12446     12449     12452
     12444     12443     12446     12447     12444     12443     12446     12448
     12444     12443     12446     12449     12445     12443     12446     12447
     12445     12443     12446     12448     12445     12443     12446     12449
     12446     12449     12452     12453     12446     12449     12452     12454
     12446     12449     12452     12455     12447     12446     12449     12450
     12447     12446     12449     12451     12447     12446     12449     12452
     12448     12446     12449     12450     12448     12446     12449     12451
     12448     12446     12449     12452     12449     12452     12455     12456
     12449     12452     12455     12457     12450     12449     12452     12453
     12450     12449     12452     12454     12450     12449     12452     12455
     12451     12449     12452     12453     12451     12449     12452     12454
     12451     12449     12452     12455     12452     12455     12457     12458
     12452     12455     12457     12459     12453     12452     12455     12456
     12453     12452     12455     12457     12454     12452     12455     12456
     12454     12452     12455     12457     12455     12457     12459     12460
     12455     12457     12459     12461     12455     12457     12459     12462
     12456     12455     12457     12458     12456     12455     12457     12459
     12457     12459     12462     12463     12457     12459     12462     12464
     12457     12459     12462     12465     12458     12457     12459     12460
     12458     12457     12459     12461     12458     12457     12459     12462
     12459     12462     12465     12466     12459     12462     12465     12467
     12459     12462     12465     12468     12460     12459     12462     12463
     12460     12459     12462     12464     12460     12459     12462     12465
     12461     12459     12462     12463     12461     12459     12462     12464
     12461     12459     12462     12465     12462     12465     12468     12469
     12462     12465     12468     12470     12462     12465     12468     12471
     12463     12462     12465     12466     12463     12462     12465     12467
     12463     12462     12465     12468     12464     12462     12465     12466
     12464     12462     12465     12467     12464     12462     12465     12468
     12465     12468     12471     12472     12465     12468     12471     12473
     12465     12468     12471     12474     12466     12465     12468     12469
     12466     12465     12468     12470     12466     12465     12468     12471
     12467     12465     12468     12469     12467     12465     12468     12470
     12467     12465     12468     12471     12468     12471     12474     12475
     12468     12471     12474     12476     12468     12471     12474     12477
     12469     12468     12471     12472     12469     12468     12471     12473
     12469     12468     12471     12474     12470     12468     12471     12472
     12470     12468     12471     12473     12470     12468     12471     12474
     12471     12474     12477     12478     12471     12474     12477     12479
     12471     12474     12477     12480     12472     12471     12474     12475
     12472     12471     12474     12476     12472     12471     12474     12477
     12473     12471     12474     12475     12473     12471     12474     12476
     12473     12471     12474     12477     12474     12477     12480     12481
     12474     12477     12480     12482     12474     12477     12480     12483
     12475     12474     12477     12478     12475     12474     12477     12479
     12475     12474     12477     12480     12476     12474     12477     12478
     12476     12474     12477     12479     12476     12474     12477     12480
     12478     12477     12480     12481     12478     12477     12480     12482
     12478     12477     12480     12483     12479     12477     12480     12481
     12479     12477     12480     12482     12479     12477     12480     12483
     12484     12487     12490     12491     12484     12487     12490     12492
     12484     12487     12490     12493     12485     12484     12487     12488
     12485     12484     12487     12489     12485     12484     12487     12490
     12486     12484     12487     12488     12486     12484     12487     12489
     12486     12484     12487     12490     12487     12490     12493     12494
     12487     12490     12493     12495     12487     12490     12493     12496
     12488     12487     12490     12491     12488     12487     12490     12492
     12488     12487     12490     12493     12489     12487     12490     12491
     12489     12487     12490     12492     12489     12487     12490     12493
     12490     12493     12496     12497     12490     12493     12496     12498
     12490     12493     12496     12499     12491     12490     12493     12494
     12491     12490     12493     12495     12491     12490     12493     12496
     12492     12490     12493     12494     12492     12490     12493     12495
     12492     12490     12493     12496     12493     12496     12499     12500
     12493     12496     12499     12501     12493     12496     12499     12502
     12494     12493     12496     12497     12494     12493     12496     12498
     12494     12493     12496     12499     12495     12493     12496     12497
     12495     12493     12496     12498     12495     12493     12496     12499
     12496     12499     12502     12503     12496     12499     12502     12504
     12496     12499     12502     12505     12497     12496     12499     12500
     12497     12496     12499     12501     12497     12496     12499     12502
     12498     12496     12499     12500     12498     12496     12499     12501
     12498     12496     12499     12502     12499     12502     12505     12506
     12499     12502     12505     12507     12499     12502     12505     12508
     12500     12499     12502     12503     12500     12499     12502     12504
     12500     12499     12502     12505     12501     12499     12502     12503
     12501     12499     12502     12504     12501     12499     12502     12505
     12502     12505     12508     12509     12502     12505     12508     12510
     12502     12505     12508     12511     12503     12502     12505     12506
     12503     12502     12505     12507     12503     12502     12505     12508
     12504     12502     12505     12506     12504     12502     12505     12507
     12504     12502     12505     12508     12505     12508     12511     12512
     12505     12508     12511     12513     12505     12508     12511     12514
     12506     12505     12508     12509     12506     12505     12508     12510
     12506     12505     12508     12511     12507     12505     12508     12509
     12507     12505     12508     12510     12507     12505     12508     12511
     12508     12511     12514     12515     12508     12511     12514     12516
     12508     12511     12514     12517     12509     12508     12511     12512
     12509     12508     12511     12513     12509     12508     12511     12514
     12510     12508     12511     12512     12510     12508     12511     12513
     12510     12508     12511     12514     12511     12514     12517     12518
     12511     12514     12517     12519     12511     12514     12517     12520
     12512     12511     12514     12515     12512     12511     12514     12516
     12512     12511     12514     12517     12513     12511     12514     12515
     12513     12511     12514     12516     12513     12511     12514     12517
     12514     12517     12520     12521     12514     12517     12520     12522
     12514     12517     12520     12523     12515     12514     12517     12518
     12515     12514     12517     12519     12515     12514     12517     12520
     12516     12514     12517     12518     12516     12514     12517     12519
     12516     12514     12517     12520     12517     12520     12523     12524
     12517     12520     12523     12525     12517     12520     12523     12526
     12518     12517     12520     12521     12518     12517     12520     12522
     12518     12517     12520     12523     12519     12517     12520     12521
     12519     12517     12520     12522     12519     12517     12520     12523
     12521     12520     12523     12524     12521     12520     12523     12525
     12521     12520     12523     12526     12522     12520     12523     12524
     12522     12520     12523     12525     12522     12520     12523     12526
     12527     12531     12534     12535     12527     12531     12534     12565
     12527     12573     12570     12565     12527     12573     12570     12571
     12527     12573     12570     12572     12528     12527     12529     12530
     12528     12527     12531     12532     12528     12527     12531     12533
     12528     12527     12531     12534     12528     12527     12573     12570
     12528     12527     12573     12574     12528     12527     12573     12575
     12529     12527     12531     12532     12529     12527     12531     12533
     12529     12527     12531     12534     12529     12527     12573     12570
     12529     12527     12573     12574     12529     12527     12573     12575
     12530     12529     12527     12531     12530     12529     12527     12573
     12531     12527     12573     12570     12531     12527     12573     12574
     12531     12527     12573     12575     12531     12534     12535     12536
     12531     12534     12535     12537     12531     12534     12565     12563
     12531     12534     12565     12566     12531     12534     12565     12570
     12532     12531     12527     12573     12532     12531     12534     12535
     12532     12531     12534     12565     12533     12531     12527     12573
     12533     12531     12534     12535     12533     12531     12534     12565
     12534     12531     12527     12573     12534     12535     12537     12538
     12534     12535     12537     12539     12534     12535     12537     12540
     12534     12565     12563     12540     12534     12565     12563     12560
     12534     12565     12563     12564     12534     12565     12566     12567
     12534     12565     12566     12568     12534     12565     12566     12569
     12534     12565     12570     12571     12534     12565     12570     12572
     12534     12565     12570     12573     12535     12534     12565     12563
     12535     12534     12565     12566     12535     12534     12565     12570
     12535     12537     12540     12541     12535     12537     12540     12542
     12535     12537     12540     12563     12536     12535     12534     12565
     12536     12535     12537     12538     12536     12535     12537     12539
     12536     12535     12537     12540     12537     12535     12534     12565
     12537     12540     12542     12543     12537     12540     12542     12544
     12537     12540     12542     12552     12537     12540     12563     12560
     12537     12540     12563     12564     12537     12540     12563     12565
     12538     12537     12540     12541     12538     12537     12540     12542
     12538     12537     12540     12563     12539     12537     12540     12541
     12539     12537     12540     12542     12539     12537     12540     12563
     12540     12542     12544     12545     12540     12542     12544     12546
     12540     12542     12544     12547     12540     12542     12552     12550
     12540     12542     12552     12553     12540     12542     12552     12557
     12540     12563     12560     12557     12540     12563     12560     12561
     12540     12563     12560     12562     12540     12563     12565     12566
     12540     12563     12565     12570     12541     12540     12542     12543
     12541     12540     12542     12544     12541     12540     12542     12552
     12541     12540     12563     12560     12541     12540     12563     12564
     12541     12540     12563     12565     12542     12540     12563     12560
     12542     12540     12563     12564     12542     12540     12563     12565
     12542     12544     12547     12548     12542     12544     12547     12549
     12542     12544     12547     12550     12542     12552     12550     12547
     12542     12552     12550     12551     12542     12552     12550     12576
     12542     12552     12553     12554     12542     12552     12553     12555
     12542     12552     12553     12556     12542     12552     12557     12558
     12542     12552     12557     12559     12542     12552     12557     12560
     12543     12542     12540     12563     12543     12542     12544     12545
     12543     12542     12544     12546     12543     12542     12544     12547
     12543     12542     12552     12550     12543     12542     12552     12553
     12543     12542     12552     12557     12544     12542     12540     12563
     12544     12542     12552     12550     12544     12542     12552     12553
     12544     12542     12552     12557     12544     12547     12550     12551
     12544     12547     12550     12552     12544     12547     12550     12576
     12545     12544     12542     12552     12545     12544     12547     12548
     12545     12544     12547     12549     12545     12544     12547     12550
     12546     12544     12542     12552     12546     12544     12547     12548
     12546     12544     12547     12549     12546     12544     12547     12550
     12547     12544     12542     12552     12547     12550     12552     12553
     12547     12550     12552     12557     12547     12550     12576     12577
     12547     12550     12576     12578     12547     12550     12576     12582
     12548     12547     12550     12551     12548     12547     12550     12552
     12548     12547     12550     12576     12549     12547     12550     12551
     12549     12547     12550     12552     12549     12547     12550     12576
     12550     12552     12553     12554     12550     12552     12553     12555
     12550     12552     12553     12556     12550     12552     12557     12558
     12550     12552     12557     12559     12550     12552     12557     12560
     12550     12576     12578     12579     12550     12576     12578     12580
     12550     12576     12578     12581     12550     12576     12582     12583
     12550     12576     12582     12584     12550     12576     12582     12585
     12551     12550     12552     12553     12551     12550     12552     12557
     12551     12550     12576     12577     12551     12550     12576     12578
     12551     12550     12576     12582     12552     12542     12540     12563
     12552     12550     12576     12577     12552     12550     12576     12578
     12552     12550     12576     12582     12552     12557     12560     12561
     12552     12557     12560     12562     12552     12557     12560     12563
     12553     12552     12550     12576     12553     12552     12557     12558
     12553     12552     12557     12559     12553     12552     12557     12560
     12554     12553     12552     12557     12555     12553     12552     12557
     12556     12553     12552     12557     12557     12552     12550     12576
     12557     12560     12563     12564     12557     12560     12563     12565
     12558     12557     12560     12561     12558     12557     12560     12562
     12558     12557     12560     12563     12559     12557     12560     12561
     12559     12557     12560     12562     12559     12557     12560     12563
     12560     12563     12565     12566     12560     12563     12565     12570
     12561     12560     12563     12564     12561     12560     12563     12565
     12562     12560     12563     12564     12562     12560     12563     12565
     12563     12565     12566     12567     12563     12565     12566     12568
     12563     12565     12566     12569     12563     12565     12570     12571
     12563     12565     12570     12572     12563     12565     12570     12573
     12564     12563     12565     12566     12564     12563     12565     12570
     12565     12570     12573     12574     12565     12570     12573     12575
     12566     12565     12570     12571     12566     12565     12570     12572
     12566     12565     12570     12573     12567     12566     12565     12570
     12568     12566     12565     12570     12569     12566     12565     12570
     12571     12570     12573     12574     12571     12570     12573     12575
     12572     12570     12573     12574     12572     12570     12573     12575
     12576     12582     12585     12586     12576     12582     12585     12587
     12576     12582     12585     12588     12577     12576     12578     12579
     12577     12576     12578     12580     12577     12576     12578     12581
     12577     12576     12582     12583     12577     12576     12582     12584
     12577     12576     12582     12585     12578     12576     12582     12583
     12578     12576     12582     12584     12578     12576     12582     12585
     12579     12578     12576     12582     12580     12578     12576     12582
     12581     12578     12576     12582     12582     12585     12588     12589
     12582     12585     12588     12590     12582     12585     12588     12591
     12583     12582     12585     12586     12583     12582     12585     12587
     12583     12582     12585     12588     12584     12582     12585     12586
     12584     12582     12585     12587     12584     12582     12585     12588
     12585     12588     12591     12592     12585     12588     12591     12593
     12585     12588     12591     12597     12586     12585     12588     12589
     12586     12585     12588     12590     12586     12585     12588     12591
     12587     12585     12588     12589     12587     12585     12588     12590
     12587     12585     12588     12591     12588     12591     12593     12594
     12588     12591     12593     12595     12588     12591     12593     12596
     12588     12591     12597     12598     12588     12591     12597     12599
     12588     12591     12597     12600     12589     12588     12591     12592
     12589     12588     12591     12593     12589     12588     12591     12597
     12590     12588     12591     12592     12590     12588     12591     12593
     12590     12588     12591     12597     12592     12591     12593     12594
     12592     12591     12593     12595     12592     12591     12593     12596
     12592     12591     12597     12598     12592     12591     12597     12599
     12592     12591     12597     12600     12593     12591     12597     12598
     12593     12591     12597     12599     12593     12591     12597     12600
     12594     12593     12591     12597     12595     12593     12591     12597
     12596     12593     12591     12597     12601     12605     12608     12609
     12601     12605     12608     12610     12601     12605     12608     12614
     12602     12601     12605     12606     12602     12601     12605     12607
     12602     12601     12605     12608     12603     12601     12605     12606
     12603     12601     12605     12607     12603     12601     12605     12608
     12604     12601     12605     12606     12604     12601     12605     12607
     12604     12601     12605     12608     12605     12608     12614     12611
     12606     12605     12608     12609     12606     12605     12608     12610
     12606     12605     12608     12614     12607     12605     12608     12609
     12607     12605     12608     12610     12607     12605     12608     12614
     12608     12614     12611     12612     12608     12614     12611     12613
     12608     12614     12611     12615     12609     12608     12614     12611
     12610     12608     12614     12611     12611     12615     12616     12617
     12611     12615     12616     12618     12611     12615     12616     12619
     12612     12611     12615     12616     12613     12611     12615     12616
     12614     12611     12615     12616     12615     12616     12619     12620
     12615     12616     12619     12621     12615     12616     12619     12627
     12616     12619     12621     12622     12616     12619     12627     12628
     12616     12619     12627     12629     12616     12619     12627     12630
     12617     12616     12619     12620     12617     12616     12619     12621
     12617     12616     12619     12627     12618     12616     12619     12620
     12618     12616     12619     12621     12618     12616     12619     12627
     12619     12621     12622     12623     12619     12621     12622     12624
     12619     12627     12630     12631     12620     12619     12621     12622
     12620     12619     12627     12628     12620     12619     12627     12629
     12620     12619     12627     12630     12621     12619     12627     12628
     12621     12619     12627     12629     12621     12619     12627     12630
     12621     12622     12624     12625     12621     12622     12624     12626
     12621     12622     12624     12636     12622     12621     12619     12627
     12622     12624     12636     12637     12622     12624     12636     12638
     12622     12624     12636     12639     12623     12622     12624     12625
     12623     12622     12624     12626     12623     12622     12624     12636
     12624     12636     12639     12640     12624     12636     12639     12641
     12624     12636     12639     12642     12625     12624     12636     12637
     12625     12624     12636     12638     12625     12624     12636     12639
     12626     12624     12636     12637     12626     12624     12636     12638
     12626     12624     12636     12639     12627     12630     12631     12632
     12627     12630     12631     12633     12628     12627     12630     12631
     12629     12627     12630     12631     12630     12631     12633     12634
     12630     12631     12633     12635     12630     12631     12633     12683
     12631     12633     12683     12684     12631     12633     12683     12685
     12631     12633     12683     12686     12632     12631     12633     12634
     12632     12631     12633     12635     12632     12631     12633     12683
     12633     12683     12686     12687     12633     12683     12686     12688
     12633     12683     12686     12689     12634     12633     12683     12684
     12634     12633     12683     12685     12634     12633     12683     12686
     12635     12633     12683     12684     12635     12633     12683     12685
     12635     12633     12683     12686     12636     12639     12642     12643
     12636     12639     12642     12644     12637     12636     12639     12640
     12637     12636     12639     12641     12637     12636     12639     12642
     12638     12636     12639     12640     12638     12636     12639     12641
     12638     12636     12639     12642     12639     12642     12644     12645
     12639     12642     12644     12646     12640     12639     12642     12643
     12640     12639     12642     12644     12641     12639     12642     12643
     12641     12639     12642     12644     12642     12644     12646     12647
     12642     12644     12646     12648     12642     12644     12646     12649
     12643     12642     12644     12645     12643     12642     12644     12646
     12644     12646     12649     12650     12644     12646     12649     12651
     12645     12644     12646     12647     12645     12644     12646     12648
     12645     12644     12646     12649     12646     12649     12651     12652
     12646     12649     12651     12653     12647     12646     12649     12650
     12647     12646     12649     12651     12648     12646     12649     12650
     12648     12646     12649     12651     12649     12651     12653     12654
     12649     12651     12653     12655     12649     12651     12653     12656
     12650     12649     12651     12652     12650     12649     12651     12653
     12651     12653     12656     12657     12651     12653     12656     12658
     12652     12651     12653     12654     12652     12651     12653     12655
     12652     12651     12653     12656     12653     12656     12658     12659
     12653     12656     12658     12660     12654     12653     12656     12657
     12654     12653     12656     12658     12655     12653     12656     12657
     12655     12653     12656     12658     12656     12658     12660     12661
     12656     12658     12660     12662     12656     12658     12660     12663
     12657     12656     12658     12659     12657     12656     12658     12660
     12658     12660     12663     12664     12658     12660     12663     12665
     12659     12658     12660     12661     12659     12658     12660     12662
     12659     12658     12660     12663     12660     12663     12665     12666
     12660     12663     12665     12667     12661     12660     12663     12664
     12661     12660     12663     12665     12662     12660     12663     12664
     12662     12660     12663     12665     12663     12665     12667     12668
     12663     12665     12667     12669     12663     12665     12667     12670
     12664     12663     12665     12666     12664     12663     12665     12667
     12665     12667     12670     12671     12665     12667     12670     12672
     12665     12667     12670     12673     12666     12665     12667     12668
     12666     12665     12667     12669     12666     12665     12667     12670
     12667     12670     12673     12674     12667     12670     12673     12675
     12667     12670     12673     12676     12668     12667     12670     12671
     12668     12667     12670     12672     12668     12667     12670     12673
     12669     12667     12670     12671     12669     12667     12670     12672
     12669     12667     12670     12673     12670     12673     12676     12677
     12670     12673     12676     12678     12670     12673     12676     12679
     12671     12670     12673     12674     12671     12670     12673     12675
     12671     12670     12673     12676     12672     12670     12673     12674
     12672     12670     12673     12675     12672     12670     12673     12676
     12673     12676     12679     12680     12673     12676     12679     12681
     12673     12676     12679     12682     12674     12673     12676     12677
     12674     12673     12676     12678     12674     12673     12676     12679
     12675     12673     12676     12677     12675     12673     12676     12678
     12675     12673     12676     12679     12677     12676     12679     12680
     12677     12676     12679     12681     12677     12676     12679     12682
     12678     12676     12679     12680     12678     12676     12679     12681
     12678     12676     12679     12682     12683     12686     12689     12690
     12683     12686     12689     12691     12683     12686     12689     12692
     12684     12683     12686     12687     12684     12683     12686     12688
     12684     12683     12686     12689     12685     12683     12686     12687
     12685     12683     12686     12688     12685     12683     12686     12689
     12686     12689     12692     12693     12686     12689     12692     12694
     12686     12689     12692     12695     12687     12686     12689     12690
     12687     12686     12689     12691     12687     12686     12689     12692
     12688     12686     12689     12690     12688     12686     12689     12691
     12688     12686     12689     12692     12689     12692     12695     12696
     12689     12692     12695     12697     12689     12692     12695     12698
     12690     12689     12692     12693     12690     12689     12692     12694
     12690     12689     12692     12695     12691     12689     12692     12693
     12691     12689     12692     12694     12691     12689     12692     12695
     12692     12695     12698     12699     12692     12695     12698     12700
     12692     12695     12698     12701     12693     12692     12695     12696
     12693     12692     12695     12697     12693     12692     12695     12698
     12694     12692     12695     12696     12694     12692     12695     12697
     12694     12692     12695     12698     12695     12698     12701     12702
     12695     12698     12701     12703     12695     12698     12701     12704
     12696     12695     12698     12699     12696     12695     12698     12700
     12696     12695     12698     12701     12697     12695     12698     12699
     12697     12695     12698     12700     12697     12695     12698     12701
     12698     12701     12704     12705     12698     12701     12704     12706
     12698     12701     12704     12707     12699     12698     12701     12702
     12699     12698     12701     12703     12699     12698     12701     12704
     12700     12698     12701     12702     12700     12698     12701     12703
     12700     12698     12701     12704     12701     12704     12707     12708
     12701     12704     12707     12709     12701     12704     12707     12710
     12702     12701     12704     12705     12702     12701     12704     12706
     12702     12701     12704     12707     12703     12701     12704     12705
     12703     12701     12704     12706     12703     12701     12704     12707
     12704     12707     12710     12711     12704     12707     12710     12712
     12704     12707     12710     12713     12705     12704     12707     12708
     12705     12704     12707     12709     12705     12704     12707     12710
     12706     12704     12707     12708     12706     12704     12707     12709
     12706     12704     12707     12710     12707     12710     12713     12714
     12707     12710     12713     12715     12707     12710     12713     12716
     12708     12707     12710     12711     12708     12707     12710     12712
     12708     12707     12710     12713     12709     12707     12710     12711
     12709     12707     12710     12712     12709     12707     12710     12713
     12710     12713     12716     12717     12710     12713     12716     12718
     12710     12713     12716     12719     12711     12710     12713     12714
     12711     12710     12713     12715     12711     12710     12713     12716
     12712     12710     12713     12714     12712     12710     12713     12715
     12712     12710     12713     12716     12713     12716     12719     12720
     12713     12716     12719     12721     12713     12716     12719     12722
     12714     12713     12716     12717     12714     12713     12716     12718
     12714     12713     12716     12719     12715     12713     12716     12717
     12715     12713     12716     12718     12715     12713     12716     12719
     12716     12719     12722     12723     12716     12719     12722     12724
     12716     12719     12722     12725     12717     12716     12719     12720
     12717     12716     12719     12721     12717     12716     12719     12722
     12718     12716     12719     12720     12718     12716     12719     12721
     12718     12716     12719     12722     12719     12722     12725     12726
     12719     12722     12725     12727     12719     12722     12725     12728
     12720     12719     12722     12723     12720     12719     12722     12724
     12720     12719     12722     12725     12721     12719     12722     12723
     12721     12719     12722     12724     12721     12719     12722     12725
     12722     12725     12728     12729     12722     12725     12728     12730
     12722     12725     12728     12731     12723     12722     12725     12726
     12723     12722     12725     12727     12723     12722     12725     12728
     12724     12722     12725     12726     12724     12722     12725     12727
     12724     12722     12725     12728     12726     12725     12728     12729
     12726     12725     12728     12730     12726     12725     12728     12731
     12727     12725     12728     12729     12727     12725     12728     12730
     12727     12725     12728     12731     12732     12745     12748     12749
     12732     12745     12748     12750     12732     12745     12748     12754
     12733     12732     12737     12738     12733     12732     12737     12739
     12733     12732     12737     12740     12733     12732     12741     12742
     12733     12732     12741     12743     12733     12732     12741     12744
     12733     12732     12745     12746     12733     12732     12745     12747
     12733     12732     12745     12748     12734     12733     12732     12737
     12734     12733     12732     12741     12734     12733     12732     12745
     12735     12733     12732     12737     12735     12733     12732     12741
     12735     12733     12732     12745     12736     12733     12732     12737
     12736     12733     12732     12741     12736     12733     12732     12745
     12737     12732     12741     12742     12737     12732     12741     12743
     12737     12732     12741     12744     12737     12732     12745     12746
     12737     12732     12745     12747     12737     12732     12745     12748
     12738     12737     12732     12741     12738     12737     12732     12745
     12739     12737     12732     12741     12739     12737     12732     12745
     12740     12737     12732     12741     12740     12737     12732     12745
     12741     12732     12745     12746     12741     12732     12745     12747
     12741     12732     12745     12748     12742     12741     12732     12745
     12743     12741     12732     12745     12744     12741     12732     12745
     12745     12748     12754     12751     12746     12745     12748     12749
     12746     12745     12748     12750     12746     12745     12748     12754
     12747     12745     12748     12749     12747     12745     12748     12750
     12747     12745     12748     12754     12748     12754     12751     12752
     12748     12754     12751     12753     12748     12754     12751     12755
     12749     12748     12754     12751     12750     12748     12754     12751
     12751     12755     12756     12757     12751     12755     12756     12758
     12751     12755     12756     12759     12752     12751     12755     12756
     12753     12751     12755     12756     12754     12751     12755     12756
     12755     12756     12759     12760     12755     12756     12759     12761
     12755     12756     12759     12767     12756     12759     12761     12762
     12756     12759     12767     12768     12756     12759     12767     12769
     12756     12759     12767     12770     12757     12756     12759     12760
     12757     12756     12759     12761     12757     12756     12759     12767
     12758     12756     12759     12760     12758     12756     12759     12761
     12758     12756     12759     12767     12759     12761     12762     12763
     12759     12761     12762     12764     12759     12767     12770     12771
     12760     12759     12761     12762     12760     12759     12767     12768
     12760     12759     12767     12769     12760     12759     12767     12770
     12761     12759     12767     12768     12761     12759     12767     12769
     12761     12759     12767     12770     12761     12762     12764     12765
     12761     12762     12764     12766     12761     12762     12764     12776
     12762     12761     12759     12767     12762     12764     12776     12777
     12762     12764     12776     12778     12762     12764     12776     12779
     12763     12762     12764     12765     12763     12762     12764     12766
     12763     12762     12764     12776     12764     12776     12779     12780
     12764     12776     12779     12781     12764     12776     12779     12782
     12765     12764     12776     12777     12765     12764     12776     12778
     12765     12764     12776     12779     12766     12764     12776     12777
     12766     12764     12776     12778     12766     12764     12776     12779
     12767     12770     12771     12772     12767     12770     12771     12773
     12768     12767     12770     12771     12769     12767     12770     12771
     12770     12771     12773     12774     12770     12771     12773     12775
     12770     12771     12773     12821     12771     12773     12821     12822
     12771     12773     12821     12823     12771     12773     12821     12824
     12772     12771     12773     12774     12772     12771     12773     12775
     12772     12771     12773     12821     12773     12821     12824     12825
     12773     12821     12824     12826     12773     12821     12824     12827
     12774     12773     12821     12822     12774     12773     12821     12823
     12774     12773     12821     12824     12775     12773     12821     12822
     12775     12773     12821     12823     12775     12773     12821     12824
     12776     12779     12782     12783     12776     12779     12782     12784
     12776     12779     12782     12785     12777     12776     12779     12780
     12777     12776     12779     12781     12777     12776     12779     12782
     12778     12776     12779     12780     12778     12776     12779     12781
     12778     12776     12779     12782     12779     12782     12785     12786
     12779     12782     12785     12787     12779     12782     12785     12788
     12780     12779     12782     12783     12780     12779     12782     12784
     12780     12779     12782     12785     12781     12779     12782     12783
     12781     12779     12782     12784     12781     12779     12782     12785
     12782     12785     12788     12789     12782     12785     12788     12790
     12782     12785     12788     12791     12783     12782     12785     12786
     12783     12782     12785     12787     12783     12782     12785     12788
     12784     12782     12785     12786     12784     12782     12785     12787
     12784     12782     12785     12788     12785     12788     12791     12792
     12785     12788     12791     12793     12785     12788     12791     12794
     12786     12785     12788     12789     12786     12785     12788     12790
     12786     12785     12788     12791     12787     12785     12788     12789
     12787     12785     12788     12790     12787     12785     12788     12791
     12788     12791     12794     12795     12788     12791     12794     12796
     12789     12788     12791     12792     12789     12788     12791     12793
     12789     12788     12791     12794     12790     12788     12791     12792
     12790     12788     12791     12793     12790     12788     12791     12794
     12791     12794     12796     12797     12791     12794     12796     12798
     12792     12791     12794     12795     12792     12791     12794     12796
     12793     12791     12794     12795     12793     12791     12794     12796
     12794     12796     12798     12799     12794     12796     12798     12800
     12794     12796     12798     12801     12795     12794     12796     12797
     12795     12794     12796     12798     12796     12798     12801     12802
     12796     12798     12801     12803     12797     12796     12798     12799
     12797     12796     12798     12800     12797     12796     12798     12801
     12798     12801     12803     12804     12798     12801     12803     12805
     12799     12798     12801     12802     12799     12798     12801     12803
     12800     12798     12801     12802     12800     12798     12801     12803
     12801     12803     12805     12806     12801     12803     12805     12807
     12801     12803     12805     12808     12802     12801     12803     12804
     12802     12801     12803     12805     12803     12805     12808     12809
     12803     12805     12808     12810     12803     12805     12808     12811
     12804     12803     12805     12806     12804     12803     12805     12807
     12804     12803     12805     12808     12805     12808     12811     12812
     12805     12808     12811     12813     12805     12808     12811     12814
     12806     12805     12808     12809     12806     12805     12808     12810
     12806     12805     12808     12811     12807     12805     12808     12809
     12807     12805     12808     12810     12807     12805     12808     12811
     12808     12811     12814     12815     12808     12811     12814     12816
     12808     12811     12814     12817     12809     12808     12811     12812
     12809     12808     12811     12813     12809     12808     12811     12814
     12810     12808     12811     12812     12810     12808     12811     12813
     12810     12808     12811     12814     12811     12814     12817     12818
     12811     12814     12817     12819     12811     12814     12817     12820
     12812     12811     12814     12815     12812     12811     12814     12816
     12812     12811     12814     12817     12813     12811     12814     12815
     12813     12811     12814     12816     12813     12811     12814     12817
     12815     12814     12817     12818     12815     12814     12817     12819
     12815     12814     12817     12820     12816     12814     12817     12818
     12816     12814     12817     12819     12816     12814     12817     12820
     12821     12824     12827     12828     12821     12824     12827     12829
     12821     12824     12827     12830     12822     12821     12824     12825
     12822     12821     12824     12826     12822     12821     12824     12827
     12823     12821     12824     12825     12823     12821     12824     12826
     12823     12821     12824     12827     12824     12827     12830     12831
     12824     12827     12830     12832     12824     12827     12830     12833
     12825     12824     12827     12828     12825     12824     12827     12829
     12825     12824     12827     12830     12826     12824     12827     12828
     12826     12824     12827     12829     12826     12824     12827     12830
     12827     12830     12833     12834     12827     12830     12833     12835
     12827     12830     12833     12836     12828     12827     12830     12831
     12828     12827     12830     12832     12828     12827     12830     12833
     12829     12827     12830     12831     12829     12827     12830     12832
     12829     12827     12830     12833     12830     12833     12836     12837
     12830     12833     12836     12838     12830     12833     12836     12839
     12831     12830     12833     12834     12831     12830     12833     12835
     12831     12830     12833     12836     12832     12830     12833     12834
     12832     12830     12833     12835     12832     12830     12833     12836
     12833     12836     12839     12840     12833     12836     12839     12841
     12833     12836     12839     12842     12834     12833     12836     12837
     12834     12833     12836     12838     12834     12833     12836     12839
     12835     12833     12836     12837     12835     12833     12836     12838
     12835     12833     12836     12839     12836     12839     12842     12843
     12836     12839     12842     12844     12836     12839     12842     12845
     12837     12836     12839     12840     12837     12836     12839     12841
     12837     12836     12839     12842     12838     12836     12839     12840
     12838     12836     12839     12841     12838     12836     12839     12842
     12839     12842     12845     12846     12839     12842     12845     12847
     12839     12842     12845     12848     12840     12839     12842     12843
     12840     12839     12842     12844     12840     12839     12842     12845
     12841     12839     12842     12843     12841     12839     12842     12844
     12841     12839     12842     12845     12842     12845     12848     12849
     12842     12845     12848     12850     12842     12845     12848     12851
     12843     12842     12845     12846     12843     12842     12845     12847
     12843     12842     12845     12848     12844     12842     12845     12846
     12844     12842     12845     12847     12844     12842     12845     12848
     12845     12848     12851     12852     12845     12848     12851     12853
     12845     12848     12851     12854     12846     12845     12848     12849
     12846     12845     12848     12850     12846     12845     12848     12851
     12847     12845     12848     12849     12847     12845     12848     12850
     12847     12845     12848     12851     12848     12851     12854     12855
     12848     12851     12854     12856     12848     12851     12854     12857
     12849     12848     12851     12852     12849     12848     12851     12853
     12849     12848     12851     12854     12850     12848     12851     12852
     12850     12848     12851     12853     12850     12848     12851     12854
     12851     12854     12857     12858     12851     12854     12857     12859
     12851     12854     12857     12860     12852     12851     12854     12855
     12852     12851     12854     12856     12852     12851     12854     12857
     12853     12851     12854     12855     12853     12851     12854     12856
     12853     12851     12854     12857     12854     12857     12860     12861
     12854     12857     12860     12862     12854     12857     12860     12863
     12855     12854     12857     12858     12855     12854     12857     12859
     12855     12854     12857     12860     12856     12854     12857     12858
     12856     12854     12857     12859     12856     12854     12857     12860
     12857     12860     12863     12864     12857     12860     12863     12865
     12857     12860     12863     12866     12858     12857     12860     12861
     12858     12857     12860     12862     12858     12857     12860     12863
     12859     12857     12860     12861     12859     12857     12860     12862
     12859     12857     12860     12863     12860     12863     12866     12867
     12860     12863     12866     12868     12860     12863     12866     12869
     12861     12860     12863     12864     12861     12860     12863     12865
     12861     12860     12863     12866     12862     12860     12863     12864
     12862     12860     12863     12865     12862     12860     12863     12866
     12864     12863     12866     12867     12864     12863     12866     12868
     12864     12863     12866     12869     12865     12863     12866     12867
     12865     12863     12866     12868     12865     12863     12866     12869
     12870     12874     12877     12878     12870     12874     12877     12908
     12870     12916     12913     12908     12870     12916     12913     12914
     12870     12916     12913     12915     12871     12870     12872     12873
     12871     12870     12874     12875     12871     12870     12874     12876
     12871     12870     12874     12877     12871     12870     12916     12913
     12871     12870     12916     12917     12871     12870     12916     12918
     12872     12870     12874     12875     12872     12870     12874     12876
     12872     12870     12874     12877     12872     12870     12916     12913
     12872     12870     12916     12917     12872     12870     12916     12918
     12873     12872     12870     12874     12873     12872     12870     12916
     12874     12870     12916     12913     12874     12870     12916     12917
     12874     12870     12916     12918     12874     12877     12878     12879
     12874     12877     12878     12880     12874     12877     12908     12906
     12874     12877     12908     12909     12874     12877     12908     12913
     12875     12874     12870     12916     12875     12874     12877     12878
     12875     12874     12877     12908     12876     12874     12870     12916
     12876     12874     12877     12878     12876     12874     12877     12908
     12877     12874     12870     12916     12877     12878     12880     12881
     12877     12878     12880     12882     12877     12878     12880     12883
     12877     12908     12906     12883     12877     12908     12906     12903
     12877     12908     12906     12907     12877     12908     12909     12910
     12877     12908     12909     12911     12877     12908     12909     12912
     12877     12908     12913     12914     12877     12908     12913     12915
     12877     12908     12913     12916     12878     12877     12908     12906
     12878     12877     12908     12909     12878     12877     12908     12913
     12878     12880     12883     12884     12878     12880     12883     12885
     12878     12880     12883     12906     12879     12878     12877     12908
     12879     12878     12880     12881     12879     12878     12880     12882
     12879     12878     12880     12883     12880     12878     12877     12908
     12880     12883     12885     12886     12880     12883     12885     12887
     12880     12883     12885     12895     12880     12883     12906     12903
     12880     12883     12906     12907     12880     12883     12906     12908
     12881     12880     12883     12884     12881     12880     12883     12885
     12881     12880     12883     12906     12882     12880     12883     12884
     12882     12880     12883     12885     12882     12880     12883     12906
     12883     12885     12887     12888     12883     12885     12887     12889
     12883     12885     12887     12890     12883     12885     12895     12893
     12883     12885     12895     12896     12883     12885     12895     12900
     12883     12906     12903     12900     12883     12906     12903     12904
     12883     12906     12903     12905     12883     12906     12908     12909
     12883     12906     12908     12913     12884     12883     12885     12886
     12884     12883     12885     12887     12884     12883     12885     12895
     12884     12883     12906     12903     12884     12883     12906     12907
     12884     12883     12906     12908     12885     12883     12906     12903
     12885     12883     12906     12907     12885     12883     12906     12908
     12885     12887     12890     12891     12885     12887     12890     12892
     12885     12887     12890     12893     12885     12895     12893     12890
     12885     12895     12893     12894     12885     12895     12893     12919
     12885     12895     12896     12897     12885     12895     12896     12898
     12885     12895     12896     12899     12885     12895     12900     12901
     12885     12895     12900     12902     12885     12895     12900     12903
     12886     12885     12883     12906     12886     12885     12887     12888
     12886     12885     12887     12889     12886     12885     12887     12890
     12886     12885     12895     12893     12886     12885     12895     12896
     12886     12885     12895     12900     12887     12885     12883     12906
     12887     12885     12895     12893     12887     12885     12895     12896
     12887     12885     12895     12900     12887     12890     12893     12894
     12887     12890     12893     12895     12887     12890     12893     12919
     12888     12887     12885     12895     12888     12887     12890     12891
     12888     12887     12890     12892     12888     12887     12890     12893
     12889     12887     12885     12895     12889     12887     12890     12891
     12889     12887     12890     12892     12889     12887     12890     12893
     12890     12887     12885     12895     12890     12893     12895     12896
     12890     12893     12895     12900     12890     12893     12919     12920
     12890     12893     12919     12921     12890     12893     12919     12925
     12891     12890     12893     12894     12891     12890     12893     12895
     12891     12890     12893     12919     12892     12890     12893     12894
     12892     12890     12893     12895     12892     12890     12893     12919
     12893     12895     12896     12897     12893     12895     12896     12898
     12893     12895     12896     12899     12893     12895     12900     12901
     12893     12895     12900     12902     12893     12895     12900     12903
     12893     12919     12921     12922     12893     12919     12921     12923
     12893     12919     12921     12924     12893     12919     12925     12926
     12893     12919     12925     12927     12893     12919     12925     12928
     12894     12893     12895     12896     12894     12893     12895     12900
     12894     12893     12919     12920     12894     12893     12919     12921
     12894     12893     12919     12925     12895     12885     12883     12906
     12895     12893     12919     12920     12895     12893     12919     12921
     12895     12893     12919     12925     12895     12900     12903     12904
     12895     12900     12903     12905     12895     12900     12903     12906
     12896     12895     12893     12919     12896     12895     12900     12901
     12896     12895     12900     12902     12896     12895     12900     12903
     12897     12896     12895     12900     12898     12896     12895     12900
     12899     12896     12895     12900     12900     12895     12893     12919
     12900     12903     12906     12907     12900     12903     12906     12908
     12901     12900     12903     12904     12901     12900     12903     12905
     12901     12900     12903     12906     12902     12900     12903     12904
     12902     12900     12903     12905     12902     12900     12903     12906
     12903     12906     12908     12909     12903     12906     12908     12913
     12904     12903     12906     12907     12904     12903     12906     12908
     12905     12903     12906     12907     12905     12903     12906     12908
     12906     12908     12909     12910     12906     12908     12909     12911
     12906     12908     12909     12912     12906     12908     12913     12914
     12906     12908     12913     12915     12906     12908     12913     12916
     12907     12906     12908     12909     12907     12906     12908     12913
     12908     12913     12916     12917     12908     12913     12916     12918
     12909     12908     12913     12914     12909     12908     12913     12915
     12909     12908     12913     12916     12910     12909     12908     12913
     12911     12909     12908     12913     12912     12909     12908     12913
     12914     12913     12916     12917     12914     12913     12916     12918
     12915     12913     12916     12917     12915     12913     12916     12918
     12919     12925     12928     12929     12919     12925     12928     12930
     12919     12925     12928     12931     12920     12919     12921     12922
     12920     12919     12921     12923     12920     12919     12921     12924
     12920     12919     12925     12926     12920     12919     12925     12927
     12920     12919     12925     12928     12921     12919     12925     12926
     12921     12919     12925     12927     12921     12919     12925     12928
     12922     12921     12919     12925     12923     12921     12919     12925
     12924     12921     12919     12925     12925     12928     12931     12932
     12925     12928     12931     12933     12925     12928     12931     12934
     12926     12925     12928     12929     12926     12925     12928     12930
     12926     12925     12928     12931     12927     12925     12928     12929
     12927     12925     12928     12930     12927     12925     12928     12931
     12928     12931     12934     12935     12928     12931     12934     12936
     12928     12931     12934     12940     12929     12928     12931     12932
     12929     12928     12931     12933     12929     12928     12931     12934
     12930     12928     12931     12932     12930     12928     12931     12933
     12930     12928     12931     12934     12931     12934     12936     12937
     12931     12934     12936     12938     12931     12934     12936     12939
     12931     12934     12940     12941     12931     12934     12940     12942
     12931     12934     12940     12943     12932     12931     12934     12935
     12932     12931     12934     12936     12932     12931     12934     12940
     12933     12931     12934     12935     12933     12931     12934     12936
     12933     12931     12934     12940     12935     12934     12936     12937
     12935     12934     12936     12938     12935     12934     12936     12939
     12935     12934     12940     12941     12935     12934     12940     12942
     12935     12934     12940     12943     12936     12934     12940     12941
     12936     12934     12940     12942     12936     12934     12940     12943
     12937     12936     12934     12940     12938     12936     12934     12940
     12939     12936     12934     12940     12944     12948     12951     12952
     12944     12948     12951     12953     12944     12948     12951     12957
     12945     12944     12948     12949     12945     12944     12948     12950
     12945     12944     12948     12951     12946     12944     12948     12949
     12946     12944     12948     12950     12946     12944     12948     12951
     12947     12944     12948     12949     12947     12944     12948     12950
     12947     12944     12948     12951     12948     12951     12957     12954
     12949     12948     12951     12952     12949     12948     12951     12953
     12949     12948     12951     12957     12950     12948     12951     12952
     12950     12948     12951     12953     12950     12948     12951     12957
     12951     12957     12954     12955     12951     12957     12954     12956
     12951     12957     12954     12958     12952     12951     12957     12954
     12953     12951     12957     12954     12954     12958     12959     12960
     12954     12958     12959     12961     12954     12958     12959     12962
     12955     12954     12958     12959     12956     12954     12958     12959
     12957     12954     12958     12959     12958     12959     12962     12963
     12958     12959     12962     12964     12958     12959     12962     12970
     12959     12962     12964     12965     12959     12962     12970     12971
     12959     12962     12970     12972     12959     12962     12970     12973
     12960     12959     12962     12963     12960     12959     12962     12964
     12960     12959     12962     12970     12961     12959     12962     12963
     12961     12959     12962     12964     12961     12959     12962     12970
     12962     12964     12965     12966     12962     12964     12965     12967
     12962     12970     12973     12974     12963     12962     12964     12965
     12963     12962     12970     12971     12963     12962     12970     12972
     12963     12962     12970     12973     12964     12962     12970     12971
     12964     12962     12970     12972     12964     12962     12970     12973
     12964     12965     12967     12968     12964     12965     12967     12969
     12964     12965     12967     12979     12965     12964     12962     12970
     12965     12967     12979     12980     12965     12967     12979     12981
     12965     12967     12979     12982     12966     12965     12967     12968
     12966     12965     12967     12969     12966     12965     12967     12979
     12967     12979     12982     12983     12967     12979     12982     12984
     12967     12979     12982     12985     12968     12967     12979     12980
     12968     12967     12979     12981     12968     12967     12979     12982
     12969     12967     12979     12980     12969     12967     12979     12981
     12969     12967     12979     12982     12970     12973     12974     12975
     12970     12973     12974     12976     12971     12970     12973     12974
     12972     12970     12973     12974     12973     12974     12976     12977
     12973     12974     12976     12978     12973     12974     12976     13026
     12974     12976     13026     13027     12974     12976     13026     13028
     12974     12976     13026     13029     12975     12974     12976     12977
     12975     12974     12976     12978     12975     12974     12976     13026
     12976     13026     13029     13030     12976     13026     13029     13031
     12976     13026     13029     13032     12977     12976     13026     13027
     12977     12976     13026     13028     12977     12976     13026     13029
     12978     12976     13026     13027     12978     12976     13026     13028
     12978     12976     13026     13029     12979     12982     12985     12986
     12979     12982     12985     12987     12980     12979     12982     12983
     12980     12979     12982     12984     12980     12979     12982     12985
     12981     12979     12982     12983     12981     12979     12982     12984
     12981     12979     12982     12985     12982     12985     12987     12988
     12982     12985     12987     12989     12983     12982     12985     12986
     12983     12982     12985     12987     12984     12982     12985     12986
     12984     12982     12985     12987     12985     12987     12989     12990
     12985     12987     12989     12991     12985     12987     12989     12992
     12986     12985     12987     12988     12986     12985     12987     12989
     12987     12989     12992     12993     12987     12989     12992     12994
     12988     12987     12989     12990     12988     12987     12989     12991
     12988     12987     12989     12992     12989     12992     12994     12995
     12989     12992     12994     12996     12990     12989     12992     12993
     12990     12989     12992     12994     12991     12989     12992     12993
     12991     12989     12992     12994     12992     12994     12996     12997
     12992     12994     12996     12998     12992     12994     12996     12999
     12993     12992     12994     12995     12993     12992     12994     12996
     12994     12996     12999     13000     12994     12996     12999     13001
     12995     12994     12996     12997     12995     12994     12996     12998
     12995     12994     12996     12999     12996     12999     13001     13002
     12996     12999     13001     13003     12997     12996     12999     13000
     12997     12996     12999     13001     12998     12996     12999     13000
     12998     12996     12999     13001     12999     13001     13003     13004
     12999     13001     13003     13005     12999     13001     13003     13006
     13000     12999     13001     13002     13000     12999     13001     13003
     13001     13003     13006     13007     13001     13003     13006     13008
     13002     13001     13003     13004     13002     13001     13003     13005
     13002     13001     13003     13006     13003     13006     13008     13009
     13003     13006     13008     13010     13004     13003     13006     13007
     13004     13003     13006     13008     13005     13003     13006     13007
     13005     13003     13006     13008     13006     13008     13010     13011
     13006     13008     13010     13012     13006     13008     13010     13013
     13007     13006     13008     13009     13007     13006     13008     13010
     13008     13010     13013     13014     13008     13010     13013     13015
     13008     13010     13013     13016     13009     13008     13010     13011
     13009     13008     13010     13012     13009     13008     13010     13013
     13010     13013     13016     13017     13010     13013     13016     13018
     13010     13013     13016     13019     13011     13010     13013     13014
     13011     13010     13013     13015     13011     13010     13013     13016
     13012     13010     13013     13014     13012     13010     13013     13015
     13012     13010     13013     13016     13013     13016     13019     13020
     13013     13016     13019     13021     13013     13016     13019     13022
     13014     13013     13016     13017     13014     13013     13016     13018
     13014     13013     13016     13019     13015     13013     13016     13017
     13015     13013     13016     13018     13015     13013     13016     13019
     13016     13019     13022     13023     13016     13019     13022     13024
     13016     13019     13022     13025     13017     13016     13019     13020
     13017     13016     13019     13021     13017     13016     13019     13022
     13018     13016     13019     13020     13018     13016     13019     13021
     13018     13016     13019     13022     13020     13019     13022     13023
     13020     13019     13022     13024     13020     13019     13022     13025
     13021     13019     13022     13023     13021     13019     13022     13024
     13021     13019     13022     13025     13026     13029     13032     13033
     13026     13029     13032     13034     13026     13029     13032     13035
     13027     13026     13029     13030     13027     13026     13029     13031
     13027     13026     13029     13032     13028     13026     13029     13030
     13028     13026     13029     13031     13028     13026     13029     13032
     13029     13032     13035     13036     13029     13032     13035     13037
     13029     13032     13035     13038     13030     13029     13032     13033
     13030     13029     13032     13034     13030     13029     13032     13035
     13031     13029     13032     13033     13031     13029     13032     13034
     13031     13029     13032     13035     13032     13035     13038     13039
     13032     13035     13038     13040     13032     13035     13038     13041
     13033     13032     13035     13036     13033     13032     13035     13037
     13033     13032     13035     13038     13034     13032     13035     13036
     13034     13032     13035     13037     13034     13032     13035     13038
     13035     13038     13041     13042     13035     13038     13041     13043
     13035     13038     13041     13044     13036     13035     13038     13039
     13036     13035     13038     13040     13036     13035     13038     13041
     13037     13035     13038     13039     13037     13035     13038     13040
     13037     13035     13038     13041     13038     13041     13044     13045
     13038     13041     13044     13046     13038     13041     13044     13047
     13039     13038     13041     13042     13039     13038     13041     13043
     13039     13038     13041     13044     13040     13038     13041     13042
     13040     13038     13041     13043     13040     13038     13041     13044
     13041     13044     13047     13048     13041     13044     13047     13049
     13041     13044     13047     13050     13042     13041     13044     13045
     13042     13041     13044     13046     13042     13041     13044     13047
     13043     13041     13044     13045     13043     13041     13044     13046
     13043     13041     13044     13047     13044     13047     13050     13051
     13044     13047     13050     13052     13044     13047     13050     13053
     13045     13044     13047     13048     13045     13044     13047     13049
     13045     13044     13047     13050     13046     13044     13047     13048
     13046     13044     13047     13049     13046     13044     13047     13050
     13047     13050     13053     13054     13047     13050     13053     13055
     13047     13050     13053     13056     13048     13047     13050     13051
     13048     13047     13050     13052     13048     13047     13050     13053
     13049     13047     13050     13051     13049     13047     13050     13052
     13049     13047     13050     13053     13050     13053     13056     13057
     13050     13053     13056     13058     13050     13053     13056     13059
     13051     13050     13053     13054     13051     13050     13053     13055
     13051     13050     13053     13056     13052     13050     13053     13054
     13052     13050     13053     13055     13052     13050     13053     13056
     13053     13056     13059     13060     13053     13056     13059     13061
     13053     13056     13059     13062     13054     13053     13056     13057
     13054     13053     13056     13058     13054     13053     13056     13059
     13055     13053     13056     13057     13055     13053     13056     13058
     13055     13053     13056     13059     13056     13059     13062     13063
     13056     13059     13062     13064     13056     13059     13062     13065
     13057     13056     13059     13060     13057     13056     13059     13061
     13057     13056     13059     13062     13058     13056     13059     13060
     13058     13056     13059     13061     13058     13056     13059     13062
     13059     13062     13065     13066     13059     13062     13065     13067
     13059     13062     13065     13068     13060     13059     13062     13063
     13060     13059     13062     13064     13060     13059     13062     13065
     13061     13059     13062     13063     13061     13059     13062     13064
     13061     13059     13062     13065     13062     13065     13068     13069
     13062     13065     13068     13070     13062     13065     13068     13071
     13063     13062     13065     13066     13063     13062     13065     13067
     13063     13062     13065     13068     13064     13062     13065     13066
     13064     13062     13065     13067     13064     13062     13065     13068
     13065     13068     13071     13072     13065     13068     13071     13073
     13065     13068     13071     13074     13066     13065     13068     13069
     13066     13065     13068     13070     13066     13065     13068     13071
     13067     13065     13068     13069     13067     13065     13068     13070
     13067     13065     13068     13071     13069     13068     13071     13072
     13069     13068     13071     13073     13069     13068     13071     13074
     13070     13068     13071     13072     13070     13068     13071     13073
     13070     13068     13071     13074     13075     13088     13091     13092
     13075     13088     13091     13093     13075     13088     13091     13098
     13076     13075     13080     13081     13076     13075     13080     13082
     13076     13075     13080     13083     13076     13075     13084     13085
     13076     13075     13084     13086     13076     13075     13084     13087
     13076     13075     13088     13089     13076     13075     13088     13090
     13076     13075     13088     13091     13077     13076     13075     13080
     13077     13076     13075     13084     13077     13076     13075     13088
     13078     13076     13075     13080     13078     13076     13075     13084
     13078     13076     13075     13088     13079     13076     13075     13080
     13079     13076     13075     13084     13079     13076     13075     13088
     13080     13075     13084     13085     13080     13075     13084     13086
     13080     13075     13084     13087     13080     13075     13088     13089
     13080     13075     13088     13090     13080     13075     13088     13091
     13081     13080     13075     13084     13081     13080     13075     13088
     13082     13080     13075     13084     13082     13080     13075     13088
     13083     13080     13075     13084     13083     13080     13075     13088
     13084     13075     13088     13089     13084     13075     13088     13090
     13084     13075     13088     13091     13085     13084     13075     13088
     13086     13084     13075     13088     13087     13084     13075     13088
     13088     13091     13098     13094     13089     13088     13091     13092
     13089     13088     13091     13093     13089     13088     13091     13098
     13090     13088     13091     13092     13090     13088     13091     13093
     13090     13088     13091     13098     13091     13098     13094     13095
     13091     13098     13094     13096     13091     13098     13094     13097
     13092     13091     13098     13094     13093     13091     13098     13094
     13094     13097     13099     13100     13094     13097     13099     13101
     13094     13097     13099     13104     13095     13094     13097     13099
     13096     13094     13097     13099     13097     13099     13104     13102
     13097     13099     13104     13105     13097     13099     13104     13106
     13098     13094     13097     13099     13099     13104     13102     13103
     13099     13104     13102     13154     13099     13104     13106     13107
     13099     13104     13106     13108     13099     13104     13106     13110
     13100     13099     13104     13102     13100     13099     13104     13105
     13100     13099     13104     13106     13101     13099     13104     13102
     13101     13099     13104     13105     13101     13099     13104     13106
     13102     13104     13106     13107     13102     13104     13106     13108
     13102     13104     13106     13110     13102     13154     13156     13157
     13102     13154     13156     13158     13102     13154     13156     13159
     13103     13102     13104     13105     13103     13102     13104     13106
     13103     13102     13154     13155     13103     13102     13154     13156
     13104     13102     13154     13155     13104     13102     13154     13156
     13104     13106     13108     13109     13104     13106     13110     13111
     13104     13106     13110     13112     13105     13104     13102     13154
     13105     13104     13106     13107     13105     13104     13106     13108
     13105     13104     13106     13110     13106     13104     13102     13154
     13106     13110     13112     13113     13106     13110     13112     13114
     13107     13106     13108     13109     13107     13106     13110     13111
     13107     13106     13110     13112     13108     13106     13110     13111
     13108     13106     13110     13112     13109     13108     13106     13110
     13110     13112     13114     13115     13110     13112     13114     13116
     13110     13112     13114     13117     13111     13110     13112     13113
     13111     13110     13112     13114     13112     13114     13117     13118
     13112     13114     13117     13119     13112     13114     13117     13120
     13113     13112     13114     13115     13113     13112     13114     13116
     13113     13112     13114     13117     13114     13117     13120     13121
     13114     13117     13120     13122     13114     13117     13120     13123
     13115     13114     13117     13118     13115     13114     13117     13119
     13115     13114     13117     13120     13116     13114     13117     13118
     13116     13114     13117     13119     13116     13114     13117     13120
     13117     13120     13123     13124     13117     13120     13123     13125
     13117     13120     13123     13126     13118     13117     13120     13121
     13118     13117     13120     13122     13118     13117     13120     13123
     13119     13117     13120     13121     13119     13117     13120     13122
     13119     13117     13120     13123     13120     13123     13126     13127
     13120     13123     13126     13128     13120     13123     13126     13129
     13121     13120     13123     13124     13121     13120     13123     13125
     13121     13120     13123     13126     13122     13120     13123     13124
     13122     13120     13123     13125     13122     13120     13123     13126
     13123     13126     13129     13130     13123     13126     13129     13131
     13123     13126     13129     13132     13124     13123     13126     13127
     13124     13123     13126     13128     13124     13123     13126     13129
     13125     13123     13126     13127     13125     13123     13126     13128
     13125     13123     13126     13129     13126     13129     13132     13133
     13126     13129     13132     13134     13126     13129     13132     13135
     13127     13126     13129     13130     13127     13126     13129     13131
     13127     13126     13129     13132     13128     13126     13129     13130
     13128     13126     13129     13131     13128     13126     13129     13132
     13129     13132     13135     13136     13129     13132     13135     13137
     13129     13132     13135     13138     13130     13129     13132     13133
     13130     13129     13132     13134     13130     13129     13132     13135
     13131     13129     13132     13133     13131     13129     13132     13134
     13131     13129     13132     13135     13132     13135     13138     13139
     13132     13135     13138     13140     13132     13135     13138     13141
     13133     13132     13135     13136     13133     13132     13135     13137
     13133     13132     13135     13138     13134     13132     13135     13136
     13134     13132     13135     13137     13134     13132     13135     13138
     13135     13138     13141     13142     13135     13138     13141     13143
     13135     13138     13141     13144     13136     13135     13138     13139
     13136     13135     13138     13140     13136     13135     13138     13141
     13137     13135     13138     13139     13137     13135     13138     13140
     13137     13135     13138     13141     13138     13141     13144     13145
     13138     13141     13144     13146     13138     13141     13144     13147
     13139     13138     13141     13142     13139     13138     13141     13143
     13139     13138     13141     13144     13140     13138     13141     13142
     13140     13138     13141     13143     13140     13138     13141     13144
     13141     13144     13147     13148     13141     13144     13147     13149
     13141     13144     13147     13150     13142     13141     13144     13145
     13142     13141     13144     13146     13142     13141     13144     13147
     13143     13141     13144     13145     13143     13141     13144     13146
     13143     13141     13144     13147     13144     13147     13150     13151
     13144     13147     13150     13152     13144     13147     13150     13153
     13145     13144     13147     13148     13145     13144     13147     13149
     13145     13144     13147     13150     13146     13144     13147     13148
     13146     13144     13147     13149     13146     13144     13147     13150
     13148     13147     13150     13151     13148     13147     13150     13152
     13148     13147     13150     13153     13149     13147     13150     13151
     13149     13147     13150     13152     13149     13147     13150     13153
     13154     13156     13159     13160     13154     13156     13159     13161
     13154     13156     13159     13162     13155     13154     13156     13157
     13155     13154     13156     13158     13155     13154     13156     13159
     13156     13159     13162     13163     13156     13159     13162     13164
     13156     13159     13162     13165     13157     13156     13159     13160
     13157     13156     13159     13161     13157     13156     13159     13162
     13158     13156     13159     13160     13158     13156     13159     13161
     13158     13156     13159     13162     13159     13162     13165     13166
     13159     13162     13165     13167     13159     13162     13165     13168
     13160     13159     13162     13163     13160     13159     13162     13164
     13160     13159     13162     13165     13161     13159     13162     13163
     13161     13159     13162     13164     13161     13159     13162     13165
     13162     13165     13168     13169     13162     13165     13168     13170
     13162     13165     13168     13171     13163     13162     13165     13166
     13163     13162     13165     13167     13163     13162     13165     13168
     13164     13162     13165     13166     13164     13162     13165     13167
     13164     13162     13165     13168     13165     13168     13171     13172
     13165     13168     13171     13173     13165     13168     13171     13174
     13166     13165     13168     13169     13166     13165     13168     13170
     13166     13165     13168     13171     13167     13165     13168     13169
     13167     13165     13168     13170     13167     13165     13168     13171
     13168     13171     13174     13175     13168     13171     13174     13176
     13168     13171     13174     13177     13169     13168     13171     13172
     13169     13168     13171     13173     13169     13168     13171     13174
     13170     13168     13171     13172     13170     13168     13171     13173
     13170     13168     13171     13174     13171     13174     13177     13178
     13171     13174     13177     13179     13172     13171     13174     13175
     13172     13171     13174     13176     13172     13171     13174     13177
     13173     13171     13174     13175     13173     13171     13174     13176
     13173     13171     13174     13177     13174     13177     13179     13180
     13174     13177     13179     13181     13175     13174     13177     13178
     13175     13174     13177     13179     13176     13174     13177     13178
     13176     13174     13177     13179     13177     13179     13181     13182
     13177     13179     13181     13183     13177     13179     13181     13184
     13178     13177     13179     13180     13178     13177     13179     13181
     13179     13181     13184     13185     13179     13181     13184     13186
     13179     13181     13184     13187     13180     13179     13181     13182
     13180     13179     13181     13183     13180     13179     13181     13184
     13181     13184     13187     13188     13181     13184     13187     13189
     13181     13184     13187     13190     13182     13181     13184     13185
     13182     13181     13184     13186     13182     13181     13184     13187
     13183     13181     13184     13185     13183     13181     13184     13186
     13183     13181     13184     13187     13184     13187     13190     13191
     13184     13187     13190     13192     13184     13187     13190     13193
     13185     13184     13187     13188     13185     13184     13187     13189
     13185     13184     13187     13190     13186     13184     13187     13188
     13186     13184     13187     13189     13186     13184     13187     13190
     13187     13190     13193     13194     13187     13190     13193     13195
     13187     13190     13193     13196     13188     13187     13190     13191
     13188     13187     13190     13192     13188     13187     13190     13193
     13189     13187     13190     13191     13189     13187     13190     13192
     13189     13187     13190     13193     13190     13193     13196     13197
     13190     13193     13196     13198     13190     13193     13196     13199
     13191     13190     13193     13194     13191     13190     13193     13195
     13191     13190     13193     13196     13192     13190     13193     13194
     13192     13190     13193     13195     13192     13190     13193     13196
     13193     13196     13199     13200     13193     13196     13199     13201
     13193     13196     13199     13202     13194     13193     13196     13197
     13194     13193     13196     13198     13194     13193     13196     13199
     13195     13193     13196     13197     13195     13193     13196     13198
     13195     13193     13196     13199     13196     13199     13202     13203
     13196     13199     13202     13204     13196     13199     13202     13205
     13197     13196     13199     13200     13197     13196     13199     13201
     13197     13196     13199     13202     13198     13196     13199     13200
     13198     13196     13199     13201     13198     13196     13199     13202
     13200     13199     13202     13203     13200     13199     13202     13204
     13200     13199     13202     13205     13201     13199     13202     13203
     13201     13199     13202     13204     13201     13199     13202     13205
     13206     13210     13213     13214     13206     13210     13213     13244
     13206     13252     13249     13244     13206     13252     13249     13250
     13206     13252     13249     13251     13207     13206     13208     13209
     13207     13206     13210     13211     13207     13206     13210     13212
     13207     13206     13210     13213     13207     13206     13252     13249
     13207     13206     13252     13253     13207     13206     13252     13254
     13208     13206     13210     13211     13208     13206     13210     13212
     13208     13206     13210     13213     13208     13206     13252     13249
     13208     13206     13252     13253     13208     13206     13252     13254
     13209     13208     13206     13210     13209     13208     13206     13252
     13210     13206     13252     13249     13210     13206     13252     13253
     13210     13206     13252     13254     13210     13213     13214     13215
     13210     13213     13214     13216     13210     13213     13244     13242
     13210     13213     13244     13245     13210     13213     13244     13249
     13211     13210     13206     13252     13211     13210     13213     13214
     13211     13210     13213     13244     13212     13210     13206     13252
     13212     13210     13213     13214     13212     13210     13213     13244
     13213     13210     13206     13252     13213     13214     13216     13217
     13213     13214     13216     13218     13213     13214     13216     13219
     13213     13244     13242     13219     13213     13244     13242     13239
     13213     13244     13242     13243     13213     13244     13245     13246
     13213     13244     13245     13247     13213     13244     13245     13248
     13213     13244     13249     13250     13213     13244     13249     13251
     13213     13244     13249     13252     13214     13213     13244     13242
     13214     13213     13244     13245     13214     13213     13244     13249
     13214     13216     13219     13220     13214     13216     13219     13221
     13214     13216     13219     13242     13215     13214     13213     13244
     13215     13214     13216     13217     13215     13214     13216     13218
     13215     13214     13216     13219     13216     13214     13213     13244
     13216     13219     13221     13222     13216     13219     13221     13223
     13216     13219     13221     13231     13216     13219     13242     13239
     13216     13219     13242     13243     13216     13219     13242     13244
     13217     13216     13219     13220     13217     13216     13219     13221
     13217     13216     13219     13242     13218     13216     13219     13220
     13218     13216     13219     13221     13218     13216     13219     13242
     13219     13221     13223     13224     13219     13221     13223     13225
     13219     13221     13223     13226     13219     13221     13231     13229
     13219     13221     13231     13232     13219     13221     13231     13236
     13219     13242     13239     13236     13219     13242     13239     13240
     13219     13242     13239     13241     13219     13242     13244     13245
     13219     13242     13244     13249     13220     13219     13221     13222
     13220     13219     13221     13223     13220     13219     13221     13231
     13220     13219     13242     13239     13220     13219     13242     13243
     13220     13219     13242     13244     13221     13219     13242     13239
     13221     13219     13242     13243     13221     13219     13242     13244
     13221     13223     13226     13227     13221     13223     13226     13228
     13221     13223     13226     13229     13221     13231     13229     13226
     13221     13231     13229     13230     13221     13231     13229     13255
     13221     13231     13232     13233     13221     13231     13232     13234
     13221     13231     13232     13235     13221     13231     13236     13237
     13221     13231     13236     13238     13221     13231     13236     13239
     13222     13221     13219     13242     13222     13221     13223     13224
     13222     13221     13223     13225     13222     13221     13223     13226
     13222     13221     13231     13229     13222     13221     13231     13232
     13222     13221     13231     13236     13223     13221     13219     13242
     13223     13221     13231     13229     13223     13221     13231     13232
     13223     13221     13231     13236     13223     13226     13229     13230
     13223     13226     13229     13231     13223     13226     13229     13255
     13224     13223     13221     13231     13224     13223     13226     13227
     13224     13223     13226     13228     13224     13223     13226     13229
     13225     13223     13221     13231     13225     13223     13226     13227
     13225     13223     13226     13228     13225     13223     13226     13229
     13226     13223     13221     13231     13226     13229     13231     13232
     13226     13229     13231     13236     13226     13229     13255     13256
     13226     13229     13255     13257     13226     13229     13255     13261
     13227     13226     13229     13230     13227     13226     13229     13231
     13227     13226     13229     13255     13228     13226     13229     13230
     13228     13226     13229     13231     13228     13226     13229     13255
     13229     13231     13232     13233     13229     13231     13232     13234
     13229     13231     13232     13235     13229     13231     13236     13237
     13229     13231     13236     13238     13229     13231     13236     13239
     13229     13255     13257     13258     13229     13255     13257     13259
     13229     13255     13257     13260     13229     13255     13261     13262
     13229     13255     13261     13263     13229     13255     13261     13264
     13230     13229     13231     13232     13230     13229     13231     13236
     13230     13229     13255     13256     13230     13229     13255     13257
     13230     13229     13255     13261     13231     13221     13219     13242
     13231     13229     13255     13256     13231     13229     13255     13257
     13231     13229     13255     13261     13231     13236     13239     13240
     13231     13236     13239     13241     13231     13236     13239     13242
     13232     13231     13229     13255     13232     13231     13236     13237
     13232     13231     13236     13238     13232     13231     13236     13239
     13233     13232     13231     13236     13234     13232     13231     13236
     13235     13232     13231     13236     13236     13231     13229     13255
     13236     13239     13242     13243     13236     13239     13242     13244
     13237     13236     13239     13240     13237     13236     13239     13241
     13237     13236     13239     13242     13238     13236     13239     13240
     13238     13236     13239     13241     13238     13236     13239     13242
     13239     13242     13244     13245     13239     13242     13244     13249
     13240     13239     13242     13243     13240     13239     13242     13244
     13241     13239     13242     13243     13241     13239     13242     13244
     13242     13244     13245     13246     13242     13244     13245     13247
     13242     13244     13245     13248     13242     13244     13249     13250
     13242     13244     13249     13251     13242     13244     13249     13252
     13243     13242     13244     13245     13243     13242     13244     13249
     13244     13249     13252     13253     13244     13249     13252     13254
     13245     13244     13249     13250     13245     13244     13249     13251
     13245     13244     13249     13252     13246     13245     13244     13249
     13247     13245     13244     13249     13248     13245     13244     13249
     13250     13249     13252     13253     13250     13249     13252     13254
     13251     13249     13252     13253     13251     13249     13252     13254
     13255     13261     13264     13265     13255     13261     13264     13266
     13255     13261     13264     13267     13256     13255     13257     13258
     13256     13255     13257     13259     13256     13255     13257     13260
     13256     13255     13261     13262     13256     13255     13261     13263
     13256     13255     13261     13264     13257     13255     13261     13262
     13257     13255     13261     13263     13257     13255     13261     13264
     13258     13257     13255     13261     13259     13257     13255     13261
     13260     13257     13255     13261     13261     13264     13267     13268
     13261     13264     13267     13269     13261     13264     13267     13270
     13262     13261     13264     13265     13262     13261     13264     13266
     13262     13261     13264     13267     13263     13261     13264     13265
     13263     13261     13264     13266     13263     13261     13264     13267
     13264     13267     13270     13271     13264     13267     13270     13272
     13264     13267     13270     13276     13265     13264     13267     13268
     13265     13264     13267     13269     13265     13264     13267     13270
     13266     13264     13267     13268     13266     13264     13267     13269
     13266     13264     13267     13270     13267     13270     13272     13273
     13267     13270     13272     13274     13267     13270     13272     13275
     13267     13270     13276     13277     13267     13270     13276     13278
     13267     13270     13276     13279     13268     13267     13270     13271
     13268     13267     13270     13272     13268     13267     13270     13276
     13269     13267     13270     13271     13269     13267     13270     13272
     13269     13267     13270     13276     13271     13270     13272     13273
     13271     13270     13272     13274     13271     13270     13272     13275
     13271     13270     13276     13277     13271     13270     13276     13278
     13271     13270     13276     13279     13272     13270     13276     13277
     13272     13270     13276     13278     13272     13270     13276     13279
     13273     13272     13270     13276     13274     13272     13270     13276
     13275     13272     13270     13276     13280     13293     13296     13297
     13280     13293     13296     13298     13280     13293     13296     13303
     13281     13280     13285     13286     13281     13280     13285     13287
     13281     13280     13285     13288     13281     13280     13289     13290
     13281     13280     13289     13291     13281     13280     13289     13292
     13281     13280     13293     13294     13281     13280     13293     13295
     13281     13280     13293     13296     13282     13281     13280     13285
     13282     13281     13280     13289     13282     13281     13280     13293
     13283     13281     13280     13285     13283     13281     13280     13289
     13283     13281     13280     13293     13284     13281     13280     13285
     13284     13281     13280     13289     13284     13281     13280     13293
     13285     13280     13289     13290     13285     13280     13289     13291
     13285     13280     13289     13292     13285     13280     13293     13294
     13285     13280     13293     13295     13285     13280     13293     13296
     13286     13285     13280     13289     13286     13285     13280     13293
     13287     13285     13280     13289     13287     13285     13280     13293
     13288     13285     13280     13289     13288     13285     13280     13293
     13289     13280     13293     13294     13289     13280     13293     13295
     13289     13280     13293     13296     13290     13289     13280     13293
     13291     13289     13280     13293     13292     13289     13280     13293
     13293     13296     13303     13299     13294     13293     13296     13297
     13294     13293     13296     13298     13294     13293     13296     13303
     13295     13293     13296     13297     13295     13293     13296     13298
     13295     13293     13296     13303     13296     13303     13299     13300
     13296     13303     13299     13301     13296     13303     13299     13302
     13297     13296     13303     13299     13298     13296     13303     13299
     13299     13302     13304     13305     13299     13302     13304     13306
     13299     13302     13304     13309     13300     13299     13302     13304
     13301     13299     13302     13304     13302     13304     13309     13307
     13302     13304     13309     13310     13302     13304     13309     13311
     13303     13299     13302     13304     13304     13309     13307     13308
     13304     13309     13307     13359     13304     13309     13311     13312
     13304     13309     13311     13313     13304     13309     13311     13315
     13305     13304     13309     13307     13305     13304     13309     13310
     13305     13304     13309     13311     13306     13304     13309     13307
     13306     13304     13309     13310     13306     13304     13309     13311
     13307     13309     13311     13312     13307     13309     13311     13313
     13307     13309     13311     13315     13307     13359     13361     13362
     13307     13359     13361     13363     13307     13359     13361     13364
     13308     13307     13309     13310     13308     13307     13309     13311
     13308     13307     13359     13360     13308     13307     13359     13361
     13309     13307     13359     13360     13309     13307     13359     13361
     13309     13311     13313     13314     13309     13311     13315     13316
     13309     13311     13315     13317     13310     13309     13307     13359
     13310     13309     13311     13312     13310     13309     13311     13313
     13310     13309     13311     13315     13311     13309     13307     13359
     13311     13315     13317     13318     13311     13315     13317     13319
     13312     13311     13313     13314     13312     13311     13315     13316
     13312     13311     13315     13317     13313     13311     13315     13316
     13313     13311     13315     13317     13314     13313     13311     13315
     13315     13317     13319     13320     13315     13317     13319     13321
     13315     13317     13319     13322     13316     13315     13317     13318
     13316     13315     13317     13319     13317     13319     13322     13323
     13317     13319     13322     13324     13317     13319     13322     13325
     13318     13317     13319     13320     13318     13317     13319     13321
     13318     13317     13319     13322     13319     13322     13325     13326
     13319     13322     13325     13327     13319     13322     13325     13328
     13320     13319     13322     13323     13320     13319     13322     13324
     13320     13319     13322     13325     13321     13319     13322     13323
     13321     13319     13322     13324     13321     13319     13322     13325
     13322     13325     13328     13329     13322     13325     13328     13330
     13322     13325     13328     13331     13323     13322     13325     13326
     13323     13322     13325     13327     13323     13322     13325     13328
     13324     13322     13325     13326     13324     13322     13325     13327
     13324     13322     13325     13328     13325     13328     13331     13332
     13325     13328     13331     13333     13325     13328     13331     13334
     13326     13325     13328     13329     13326     13325     13328     13330
     13326     13325     13328     13331     13327     13325     13328     13329
     13327     13325     13328     13330     13327     13325     13328     13331
     13328     13331     13334     13335     13328     13331     13334     13336
     13328     13331     13334     13337     13329     13328     13331     13332
     13329     13328     13331     13333     13329     13328     13331     13334
     13330     13328     13331     13332     13330     13328     13331     13333
     13330     13328     13331     13334     13331     13334     13337     13338
     13331     13334     13337     13339     13331     13334     13337     13340
     13332     13331     13334     13335     13332     13331     13334     13336
     13332     13331     13334     13337     13333     13331     13334     13335
     13333     13331     13334     13336     13333     13331     13334     13337
     13334     13337     13340     13341     13334     13337     13340     13342
     13334     13337     13340     13343     13335     13334     13337     13338
     13335     13334     13337     13339     13335     13334     13337     13340
     13336     13334     13337     13338     13336     13334     13337     13339
     13336     13334     13337     13340     13337     13340     13343     13344
     13337     13340     13343     13345     13337     13340     13343     13346
     13338     13337     13340     13341     13338     13337     13340     13342
     13338     13337     13340     13343     13339     13337     13340     13341
     13339     13337     13340     13342     13339     13337     13340     13343
     13340     13343     13346     13347     13340     13343     13346     13348
     13340     13343     13346     13349     13341     13340     13343     13344
     13341     13340     13343     13345     13341     13340     13343     13346
     13342     13340     13343     13344     13342     13340     13343     13345
     13342     13340     13343     13346     13343     13346     13349     13350
     13343     13346     13349     13351     13343     13346     13349     13352
     13344     13343     13346     13347     13344     13343     13346     13348
     13344     13343     13346     13349     13345     13343     13346     13347
     13345     13343     13346     13348     13345     13343     13346     13349
     13346     13349     13352     13353     13346     13349     13352     13354
     13346     13349     13352     13355     13347     13346     13349     13350
     13347     13346     13349     13351     13347     13346     13349     13352
     13348     13346     13349     13350     13348     13346     13349     13351
     13348     13346     13349     13352     13349     13352     13355     13356
     13349     13352     13355     13357     13349     13352     13355     13358
     13350     13349     13352     13353     13350     13349     13352     13354
     13350     13349     13352     13355     13351     13349     13352     13353
     13351     13349     13352     13354     13351     13349     13352     13355
     13353     13352     13355     13356     13353     13352     13355     13357
     13353     13352     13355     13358     13354     13352     13355     13356
     13354     13352     13355     13357     13354     13352     13355     13358
     13359     13361     13364     13365     13359     13361     13364     13366
     13359     13361     13364     13367     13360     13359     13361     13362
     13360     13359     13361     13363     13360     13359     13361     13364
     13361     13364     13367     13368     13361     13364     13367     13369
     13361     13364     13367     13370     13362     13361     13364     13365
     13362     13361     13364     13366     13362     13361     13364     13367
     13363     13361     13364     13365     13363     13361     13364     13366
     13363     13361     13364     13367     13364     13367     13370     13371
     13364     13367     13370     13372     13364     13367     13370     13373
     13365     13364     13367     13368     13365     13364     13367     13369
     13365     13364     13367     13370     13366     13364     13367     13368
     13366     13364     13367     13369     13366     13364     13367     13370
     13367     13370     13373     13374     13367     13370     13373     13375
     13367     13370     13373     13376     13368     13367     13370     13371
     13368     13367     13370     13372     13368     13367     13370     13373
     13369     13367     13370     13371     13369     13367     13370     13372
     13369     13367     13370     13373     13370     13373     13376     13377
     13370     13373     13376     13378     13370     13373     13376     13379
     13371     13370     13373     13374     13371     13370     13373     13375
     13371     13370     13373     13376     13372     13370     13373     13374
     13372     13370     13373     13375     13372     13370     13373     13376
     13373     13376     13379     13380     13373     13376     13379     13381
     13373     13376     13379     13382     13374     13373     13376     13377
     13374     13373     13376     13378     13374     13373     13376     13379
     13375     13373     13376     13377     13375     13373     13376     13378
     13375     13373     13376     13379     13376     13379     13382     13383
     13376     13379     13382     13384     13377     13376     13379     13380
     13377     13376     13379     13381     13377     13376     13379     13382
     13378     13376     13379     13380     13378     13376     13379     13381
     13378     13376     13379     13382     13379     13382     13384     13385
     13379     13382     13384     13386     13380     13379     13382     13383
     13380     13379     13382     13384     13381     13379     13382     13383
     13381     13379     13382     13384     13382     13384     13386     13387
     13382     13384     13386     13388     13382     13384     13386     13389
     13383     13382     13384     13385     13383     13382     13384     13386
     13384     13386     13389     13390     13384     13386     13389     13391
     13384     13386     13389     13392     13385     13384     13386     13387
     13385     13384     13386     13388     13385     13384     13386     13389
     13386     13389     13392     13393     13386     13389     13392     13394
     13386     13389     13392     13395     13387     13386     13389     13390
     13387     13386     13389     13391     13387     13386     13389     13392
     13388     13386     13389     13390     13388     13386     13389     13391
     13388     13386     13389     13392     13389     13392     13395     13396
     13389     13392     13395     13397     13389     13392     13395     13398
     13390     13389     13392     13393     13390     13389     13392     13394
     13390     13389     13392     13395     13391     13389     13392     13393
     13391     13389     13392     13394     13391     13389     13392     13395
     13392     13395     13398     13399     13392     13395     13398     13400
     13392     13395     13398     13401     13393     13392     13395     13396
     13393     13392     13395     13397     13393     13392     13395     13398
     13394     13392     13395     13396     13394     13392     13395     13397
     13394     13392     13395     13398     13395     13398     13401     13402
     13395     13398     13401     13403     13395     13398     13401     13404
     13396     13395     13398     13399     13396     13395     13398     13400
     13396     13395     13398     13401     13397     13395     13398     13399
     13397     13395     13398     13400     13397     13395     13398     13401
     13398     13401     13404     13405     13398     13401     13404     13406
     13398     13401     13404     13407     13399     13398     13401     13402
     13399     13398     13401     13403     13399     13398     13401     13404
     13400     13398     13401     13402     13400     13398     13401     13403
     13400     13398     13401     13404     13401     13404     13407     13408
     13401     13404     13407     13409     13401     13404     13407     13410
     13402     13401     13404     13405     13402     13401     13404     13406
     13402     13401     13404     13407     13403     13401     13404     13405
     13403     13401     13404     13406     13403     13401     13404     13407
     13405     13404     13407     13408     13405     13404     13407     13409
     13405     13404     13407     13410     13406     13404     13407     13408
     13406     13404     13407     13409     13406     13404     13407     13410
     13411     13415     13418     13419     13411     13415     13418     13449
     13411     13457     13454     13449     13411     13457     13454     13455
     13411     13457     13454     13456     13412     13411     13413     13414
     13412     13411     13415     13416     13412     13411     13415     13417
     13412     13411     13415     13418     13412     13411     13457     13454
     13412     13411     13457     13458     13412     13411     13457     13459
     13413     13411     13415     13416     13413     13411     13415     13417
     13413     13411     13415     13418     13413     13411     13457     13454
     13413     13411     13457     13458     13413     13411     13457     13459
     13414     13413     13411     13415     13414     13413     13411     13457
     13415     13411     13457     13454     13415     13411     13457     13458
     13415     13411     13457     13459     13415     13418     13419     13420
     13415     13418     13419     13421     13415     13418     13449     13447
     13415     13418     13449     13450     13415     13418     13449     13454
     13416     13415     13411     13457     13416     13415     13418     13419
     13416     13415     13418     13449     13417     13415     13411     13457
     13417     13415     13418     13419     13417     13415     13418     13449
     13418     13415     13411     13457     13418     13419     13421     13422
     13418     13419     13421     13423     13418     13419     13421     13424
     13418     13449     13447     13424     13418     13449     13447     13444
     13418     13449     13447     13448     13418     13449     13450     13451
     13418     13449     13450     13452     13418     13449     13450     13453
     13418     13449     13454     13455     13418     13449     13454     13456
     13418     13449     13454     13457     13419     13418     13449     13447
     13419     13418     13449     13450     13419     13418     13449     13454
     13419     13421     13424     13425     13419     13421     13424     13426
     13419     13421     13424     13447     13420     13419     13418     13449
     13420     13419     13421     13422     13420     13419     13421     13423
     13420     13419     13421     13424     13421     13419     13418     13449
     13421     13424     13426     13427     13421     13424     13426     13428
     13421     13424     13426     13436     13421     13424     13447     13444
     13421     13424     13447     13448     13421     13424     13447     13449
     13422     13421     13424     13425     13422     13421     13424     13426
     13422     13421     13424     13447     13423     13421     13424     13425
     13423     13421     13424     13426     13423     13421     13424     13447
     13424     13426     13428     13429     13424     13426     13428     13430
     13424     13426     13428     13431     13424     13426     13436     13434
     13424     13426     13436     13437     13424     13426     13436     13441
     13424     13447     13444     13441     13424     13447     13444     13445
     13424     13447     13444     13446     13424     13447     13449     13450
     13424     13447     13449     13454     13425     13424     13426     13427
     13425     13424     13426     13428     13425     13424     13426     13436
     13425     13424     13447     13444     13425     13424     13447     13448
     13425     13424     13447     13449     13426     13424     13447     13444
     13426     13424     13447     13448     13426     13424     13447     13449
     13426     13428     13431     13432     13426     13428     13431     13433
     13426     13428     13431     13434     13426     13436     13434     13431
     13426     13436     13434     13435     13426     13436     13434     13460
     13426     13436     13437     13438     13426     13436     13437     13439
     13426     13436     13437     13440     13426     13436     13441     13442
     13426     13436     13441     13443     13426     13436     13441     13444
     13427     13426     13424     13447     13427     13426     13428     13429
     13427     13426     13428     13430     13427     13426     13428     13431
     13427     13426     13436     13434     13427     13426     13436     13437
     13427     13426     13436     13441     13428     13426     13424     13447
     13428     13426     13436     13434     13428     13426     13436     13437
     13428     13426     13436     13441     13428     13431     13434     13435
     13428     13431     13434     13436     13428     13431     13434     13460
     13429     13428     13426     13436     13429     13428     13431     13432
     13429     13428     13431     13433     13429     13428     13431     13434
     13430     13428     13426     13436     13430     13428     13431     13432
     13430     13428     13431     13433     13430     13428     13431     13434
     13431     13428     13426     13436     13431     13434     13436     13437
     13431     13434     13436     13441     13431     13434     13460     13461
     13431     13434     13460     13462     13431     13434     13460     13466
     13432     13431     13434     13435     13432     13431     13434     13436
     13432     13431     13434     13460     13433     13431     13434     13435
     13433     13431     13434     13436     13433     13431     13434     13460
     13434     13436     13437     13438     13434     13436     13437     13439
     13434     13436     13437     13440     13434     13436     13441     13442
     13434     13436     13441     13443     13434     13436     13441     13444
     13434     13460     13462     13463     13434     13460     13462     13464
     13434     13460     13462     13465     13434     13460     13466     13467
     13434     13460     13466     13468     13434     13460     13466     13469
     13435     13434     13436     13437     13435     13434     13436     13441
     13435     13434     13460     13461     13435     13434     13460     13462
     13435     13434     13460     13466     13436     13426     13424     13447
     13436     13434     13460     13461     13436     13434     13460     13462
     13436     13434     13460     13466     13436     13441     13444     13445
     13436     13441     13444     13446     13436     13441     13444     13447
     13437     13436     13434     13460     13437     13436     13441     13442
     13437     13436     13441     13443     13437     13436     13441     13444
     13438     13437     13436     13441     13439     13437     13436     13441
     13440     13437     13436     13441     13441     13436     13434     13460
     13441     13444     13447     13448     13441     13444     13447     13449
     13442     13441     13444     13445     13442     13441     13444     13446
     13442     13441     13444     13447     13443     13441     13444     13445
     13443     13441     13444     13446     13443     13441     13444     13447
     13444     13447     13449     13450     13444     13447     13449     13454
     13445     13444     13447     13448     13445     13444     13447     13449
     13446     13444     13447     13448     13446     13444     13447     13449
     13447     13449     13450     13451     13447     13449     13450     13452
     13447     13449     13450     13453     13447     13449     13454     13455
     13447     13449     13454     13456     13447     13449     13454     13457
     13448     13447     13449     13450     13448     13447     13449     13454
     13449     13454     13457     13458     13449     13454     13457     13459
     13450     13449     13454     13455     13450     13449     13454     13456
     13450     13449     13454     13457     13451     13450     13449     13454
     13452     13450     13449     13454     13453     13450     13449     13454
     13455     13454     13457     13458     13455     13454     13457     13459
     13456     13454     13457     13458     13456     13454     13457     13459
     13460     13466     13469     13470     13460     13466     13469     13471
     13460     13466     13469     13472     13461     13460     13462     13463
     13461     13460     13462     13464     13461     13460     13462     13465
     13461     13460     13466     13467     13461     13460     13466     13468
     13461     13460     13466     13469     13462     13460     13466     13467
     13462     13460     13466     13468     13462     13460     13466     13469
     13463     13462     13460     13466     13464     13462     13460     13466
     13465     13462     13460     13466     13466     13469     13472     13473
     13466     13469     13472     13474     13466     13469     13472     13475
     13467     13466     13469     13470     13467     13466     13469     13471
     13467     13466     13469     13472     13468     13466     13469     13470
     13468     13466     13469     13471     13468     13466     13469     13472
     13469     13472     13475     13476     13469     13472     13475     13477
     13469     13472     13475     13481     13470     13469     13472     13473
     13470     13469     13472     13474     13470     13469     13472     13475
     13471     13469     13472     13473     13471     13469     13472     13474
     13471     13469     13472     13475     13472     13475     13477     13478
     13472     13475     13477     13479     13472     13475     13477     13480
     13472     13475     13481     13482     13472     13475     13481     13483
     13472     13475     13481     13484     13473     13472     13475     13476
     13473     13472     13475     13477     13473     13472     13475     13481
     13474     13472     13475     13476     13474     13472     13475     13477
     13474     13472     13475     13481     13476     13475     13477     13478
     13476     13475     13477     13479     13476     13475     13477     13480
     13476     13475     13481     13482     13476     13475     13481     13483
     13476     13475     13481     13484     13477     13475     13481     13482
     13477     13475     13481     13483     13477     13475     13481     13484
     13478     13477     13475     13481     13479     13477     13475     13481
     13480     13477     13475     13481     13485     13489     13492     13493
     13485     13489     13492     13523     13485     13531     13528     13523
     13485     13531     13528     13529     13485     13531     13528     13530
     13486     13485     13487     13488     13486     13485     13489     13490
     13486     13485     13489     13491     13486     13485     13489     13492
     13486     13485     13531     13528     13486     13485     13531     13532
     13486     13485     13531     13533     13487     13485     13489     13490
     13487     13485     13489     13491     13487     13485     13489     13492
     13487     13485     13531     13528     13487     13485     13531     13532
     13487     13485     13531     13533     13488     13487     13485     13489
     13488     13487     13485     13531     13489     13485     13531     13528
     13489     13485     13531     13532     13489     13485     13531     13533
     13489     13492     13493     13494     13489     13492     13493     13495
     13489     13492     13523     13521     13489     13492     13523     13524
     13489     13492     13523     13528     13490     13489     13485     13531
     13490     13489     13492     13493     13490     13489     13492     13523
     13491     13489     13485     13531     13491     13489     13492     13493
     13491     13489     13492     13523     13492     13489     13485     13531
     13492     13493     13495     13496     13492     13493     13495     13497
     13492     13493     13495     13498     13492     13523     13521     13498
     13492     13523     13521     13518     13492     13523     13521     13522
     13492     13523     13524     13525     13492     13523     13524     13526
     13492     13523     13524     13527     13492     13523     13528     13529
     13492     13523     13528     13530     13492     13523     13528     13531
     13493     13492     13523     13521     13493     13492     13523     13524
     13493     13492     13523     13528     13493     13495     13498     13499
     13493     13495     13498     13500     13493     13495     13498     13521
     13494     13493     13492     13523     13494     13493     13495     13496
     13494     13493     13495     13497     13494     13493     13495     13498
     13495     13493     13492     13523     13495     13498     13500     13501
     13495     13498     13500     13502     13495     13498     13500     13510
     13495     13498     13521     13518     13495     13498     13521     13522
     13495     13498     13521     13523     13496     13495     13498     13499
     13496     13495     13498     13500     13496     13495     13498     13521
     13497     13495     13498     13499     13497     13495     13498     13500
     13497     13495     13498     13521     13498     13500     13502     13503
     13498     13500     13502     13504     13498     13500     13502     13505
     13498     13500     13510     13508     13498     13500     13510     13511
     13498     13500     13510     13515     13498     13521     13518     13515
     13498     13521     13518     13519     13498     13521     13518     13520
     13498     13521     13523     13524     13498     13521     13523     13528
     13499     13498     13500     13501     13499     13498     13500     13502
     13499     13498     13500     13510     13499     13498     13521     13518
     13499     13498     13521     13522     13499     13498     13521     13523
     13500     13498     13521     13518     13500     13498     13521     13522
     13500     13498     13521     13523     13500     13502     13505     13506
     13500     13502     13505     13507     13500     13502     13505     13508
     13500     13510     13508     13505     13500     13510     13508     13509
     13500     13510     13508     13534     13500     13510     13511     13512
     13500     13510     13511     13513     13500     13510     13511     13514
     13500     13510     13515     13516     13500     13510     13515     13517
     13500     13510     13515     13518     13501     13500     13498     13521
     13501     13500     13502     13503     13501     13500     13502     13504
     13501     13500     13502     13505     13501     13500     13510     13508
     13501     13500     13510     13511     13501     13500     13510     13515
     13502     13500     13498     13521     13502     13500     13510     13508
     13502     13500     13510     13511     13502     13500     13510     13515
     13502     13505     13508     13509     13502     13505     13508     13510
     13502     13505     13508     13534     13503     13502     13500     13510
     13503     13502     13505     13506     13503     13502     13505     13507
     13503     13502     13505     13508     13504     13502     13500     13510
     13504     13502     13505     13506     13504     13502     13505     13507
     13504     13502     13505     13508     13505     13502     13500     13510
     13505     13508     13510     13511     13505     13508     13510     13515
     13505     13508     13534     13535     13505     13508     13534     13536
     13505     13508     13534     13540     13506     13505     13508     13509
     13506     13505     13508     13510     13506     13505     13508     13534
     13507     13505     13508     13509     13507     13505     13508     13510
     13507     13505     13508     13534     13508     13510     13511     13512
     13508     13510     13511     13513     13508     13510     13511     13514
     13508     13510     13515     13516     13508     13510     13515     13517
     13508     13510     13515     13518     13508     13534     13536     13537
     13508     13534     13536     13538     13508     13534     13536     13539
     13508     13534     13540     13541     13508     13534     13540     13542
     13508     13534     13540     13543     13509     13508     13510     13511
     13509     13508     13510     13515     13509     13508     13534     13535
     13509     13508     13534     13536     13509     13508     13534     13540
     13510     13500     13498     13521     13510     13508     13534     13535
     13510     13508     13534     13536     13510     13508     13534     13540
     13510     13515     13518     13519     13510     13515     13518     13520
     13510     13515     13518     13521     13511     13510     13508     13534
     13511     13510     13515     13516     13511     13510     13515     13517
     13511     13510     13515     13518     13512     13511     13510     13515
     13513     13511     13510     13515     13514     13511     13510     13515
     13515     13510     13508     13534     13515     13518     13521     13522
     13515     13518     13521     13523     13516     13515     13518     13519
     13516     13515     13518     13520     13516     13515     13518     13521
     13517     13515     13518     13519     13517     13515     13518     13520
     13517     13515     13518     13521     13518     13521     13523     13524
     13518     13521     13523     13528     13519     13518     13521     13522
     13519     13518     13521     13523     13520     13518     13521     13522
     13520     13518     13521     13523     13521     13523     13524     13525
     13521     13523     13524     13526     13521     13523     13524     13527
     13521     13523     13528     13529     13521     13523     13528     13530
     13521     13523     13528     13531     13522     13521     13523     13524
     13522     13521     13523     13528     13523     13528     13531     13532
     13523     13528     13531     13533     13524     13523     13528     13529
     13524     13523     13528     13530     13524     13523     13528     13531
     13525     13524     13523     13528     13526     13524     13523     13528
     13527     13524     13523     13528     13529     13528     13531     13532
     13529     13528     13531     13533     13530     13528     13531     13532
     13530     13528     13531     13533     13534     13540     13543     13544
     13534     13540     13543     13545     13534     13540     13543     13546
     13535     13534     13536     13537     13535     13534     13536     13538
     13535     13534     13536     13539     13535     13534     13540     13541
     13535     13534     13540     13542     13535     13534     13540     13543
     13536     13534     13540     13541     13536     13534     13540     13542
     13536     13534     13540     13543     13537     13536     13534     13540
     13538     13536     13534     13540     13539     13536     13534     13540
     13540     13543     13546     13547     13540     13543     13546     13548
     13540     13543     13546     13549     13541     13540     13543     13544
     13541     13540     13543     13545     13541     13540     13543     13546
     13542     13540     13543     13544     13542     13540     13543     13545
     13542     13540     13543     13546     13543     13546     13549     13550
     13543     13546     13549     13551     13543     13546     13549     13555
     13544     13543     13546     13547     13544     13543     13546     13548
     13544     13543     13546     13549     13545     13543     13546     13547
     13545     13543     13546     13548     13545     13543     13546     13549
     13546     13549     13551     13552     13546     13549     13551     13553
     13546     13549     13551     13554     13546     13549     13555     13556
     13546     13549     13555     13557     13546     13549     13555     13558
     13547     13546     13549     13550     13547     13546     13549     13551
     13547     13546     13549     13555     13548     13546     13549     13550
     13548     13546     13549     13551     13548     13546     13549     13555
     13550     13549     13551     13552     13550     13549     13551     13553
     13550     13549     13551     13554     13550     13549     13555     13556
     13550     13549     13555     13557     13550     13549     13555     13558
     13551     13549     13555     13556     13551     13549     13555     13557
     13551     13549     13555     13558     13552     13551     13549     13555
     13553     13551     13549     13555     13554     13551     13549     13555
     13559     13560     13575     13576     13559     13560     13575     13577
     13559     13560     13575     13581     13560     13559     13563     13564
     13560     13559     13563     13565     13560     13559     13563     13566
     13560     13559     13567     13568     13560     13559     13567     13569
     13560     13559     13567     13570     13560     13559     13571     13572
     13560     13559     13571     13573     13560     13559     13571     13574
     13560     13575     13581     13578     13561     13560     13559     13563
     13561     13560     13559     13567     13561     13560     13559     13571
     13561     13560     13575     13576     13561     13560     13575     13577
     13561     13560     13575     13581     13562     13560     13559     13563
     13562     13560     13559     13567     13562     13560     13559     13571
     13562     13560     13575     13576     13562     13560     13575     13577
     13562     13560     13575     13581     13563     13559     13560     13575
     13563     13559     13567     13568     13563     13559     13567     13569
     13563     13559     13567     13570     13563     13559     13571     13572
     13563     13559     13571     13573     13563     13559     13571     13574
     13564     13563     13559     13567     13564     13563     13559     13571
     13565     13563     13559     13567     13565     13563     13559     13571
     13566     13563     13559     13567     13566     13563     13559     13571
     13567     13559     13560     13575     13567     13559     13571     13572
     13567     13559     13571     13573     13567     13559     13571     13574
     13568     13567     13559     13571     13569     13567     13559     13571
     13570     13567     13559     13571     13571     13559     13560     13575
     13575     13581     13578     13579     13575     13581     13578     13580
     13575     13581     13578     13582     13576     13575     13581     13578
     13577     13575     13581     13578     13578     13582     13583     13584
     13578     13582     13583     13585     13578     13582     13583     13586
     13579     13578     13582     13583     13580     13578     13582     13583
     13581     13578     13582     13583     13582     13583     13586     13587
     13582     13583     13586     13588     13582     13583     13586     13594
     13583     13586     13588     13589     13583     13586     13594     13595
     13583     13586     13594     13596     13583     13586     13594     13597
     13584     13583     13586     13587     13584     13583     13586     13588
     13584     13583     13586     13594     13585     13583     13586     13587
     13585     13583     13586     13588     13585     13583     13586     13594
     13586     13588     13589     13590     13586     13588     13589     13591
     13586     13594     13597     13598     13587     13586     13588     13589
     13587     13586     13594     13595     13587     13586     13594     13596
     13587     13586     13594     13597     13588     13586     13594     13595
     13588     13586     13594     13596     13588     13586     13594     13597
     13588     13589     13591     13592     13588     13589     13591     13593
     13588     13589     13591     13603     13589     13588     13586     13594
     13589     13591     13603     13604     13589     13591     13603     13605
     13589     13591     13603     13606     13590     13589     13591     13592
     13590     13589     13591     13593     13590     13589     13591     13603
     13591     13603     13606     13607     13591     13603     13606     13608
     13591     13603     13606     13609     13592     13591     13603     13604
     13592     13591     13603     13605     13592     13591     13603     13606
     13593     13591     13603     13604     13593     13591     13603     13605
     13593     13591     13603     13606     13594     13597     13598     13599
     13594     13597     13598     13600     13595     13594     13597     13598
     13596     13594     13597     13598     13597     13598     13600     13601
     13597     13598     13600     13602     13597     13598     13600     13650
     13598     13600     13650     13651     13598     13600     13650     13652
     13598     13600     13650     13653     13599     13598     13600     13601
     13599     13598     13600     13602     13599     13598     13600     13650
     13600     13650     13653     13654     13600     13650     13653     13655
     13600     13650     13653     13656     13601     13600     13650     13651
     13601     13600     13650     13652     13601     13600     13650     13653
     13602     13600     13650     13651     13602     13600     13650     13652
     13602     13600     13650     13653     13603     13606     13609     13610
     13603     13606     13609     13611     13604     13603     13606     13607
     13604     13603     13606     13608     13604     13603     13606     13609
     13605     13603     13606     13607     13605     13603     13606     13608
     13605     13603     13606     13609     13606     13609     13611     13612
     13606     13609     13611     13613     13607     13606     13609     13610
     13607     13606     13609     13611     13608     13606     13609     13610
     13608     13606     13609     13611     13609     13611     13613     13614
     13609     13611     13613     13615     13609     13611     13613     13616
     13610     13609     13611     13612     13610     13609     13611     13613
     13611     13613     13616     13617     13611     13613     13616     13618
     13612     13611     13613     13614     13612     13611     13613     13615
     13612     13611     13613     13616     13613     13616     13618     13619
     13613     13616     13618     13620     13614     13613     13616     13617
     13614     13613     13616     13618     13615     13613     13616     13617
     13615     13613     13616     13618     13616     13618     13620     13621
     13616     13618     13620     13622     13616     13618     13620     13623
     13617     13616     13618     13619     13617     13616     13618     13620
     13618     13620     13623     13624     13618     13620     13623     13625
     13619     13618     13620     13621     13619     13618     13620     13622
     13619     13618     13620     13623     13620     13623     13625     13626
     13620     13623     13625     13627     13621     13620     13623     13624
     13621     13620     13623     13625     13622     13620     13623     13624
     13622     13620     13623     13625     13623     13625     13627     13628
     13623     13625     13627     13629     13623     13625     13627     13630
     13624     13623     13625     13626     13624     13623     13625     13627
     13625     13627     13630     13631     13625     13627     13630     13632
     13626     13625     13627     13628     13626     13625     13627     13629
     13626     13625     13627     13630     13627     13630     13632     13633
     13627     13630     13632     13634     13628     13627     13630     13631
     13628     13627     13630     13632     13629     13627     13630     13631
     13629     13627     13630     13632     13630     13632     13634     13635
     13630     13632     13634     13636     13630     13632     13634     13637
     13631     13630     13632     13633     13631     13630     13632     13634
     13632     13634     13637     13638     13632     13634     13637     13639
     13632     13634     13637     13640     13633     13632     13634     13635
     13633     13632     13634     13636     13633     13632     13634     13637
     13634     13637     13640     13641     13634     13637     13640     13642
     13634     13637     13640     13643     13635     13634     13637     13638
     13635     13634     13637     13639     13635     13634     13637     13640
     13636     13634     13637     13638     13636     13634     13637     13639
     13636     13634     13637     13640     13637     13640     13643     13644
     13637     13640     13643     13645     13637     13640     13643     13646
     13638     13637     13640     13641     13638     13637     13640     13642
     13638     13637     13640     13643     13639     13637     13640     13641
     13639     13637     13640     13642     13639     13637     13640     13643
     13640     13643     13646     13647     13640     13643     13646     13648
     13640     13643     13646     13649     13641     13640     13643     13644
     13641     13640     13643     13645     13641     13640     13643     13646
     13642     13640     13643     13644     13642     13640     13643     13645
     13642     13640     13643     13646     13644     13643     13646     13647
     13644     13643     13646     13648     13644     13643     13646     13649
     13645     13643     13646     13647     13645     13643     13646     13648
     13645     13643     13646     13649     13650     13653     13656     13657
     13650     13653     13656     13658     13650     13653     13656     13659
     13651     13650     13653     13654     13651     13650     13653     13655
     13651     13650     13653     13656     13652     13650     13653     13654
     13652     13650     13653     13655     13652     13650     13653     13656
     13653     13656     13659     13660     13653     13656     13659     13661
     13653     13656     13659     13662     13654     13653     13656     13657
     13654     13653     13656     13658     13654     13653     13656     13659
     13655     13653     13656     13657     13655     13653     13656     13658
     13655     13653     13656     13659     13656     13659     13662     13663
     13656     13659     13662     13664     13656     13659     13662     13665
     13657     13656     13659     13660     13657     13656     13659     13661
     13657     13656     13659     13662     13658     13656     13659     13660
     13658     13656     13659     13661     13658     13656     13659     13662
     13659     13662     13665     13666     13659     13662     13665     13667
     13659     13662     13665     13668     13660     13659     13662     13663
     13660     13659     13662     13664     13660     13659     13662     13665
     13661     13659     13662     13663     13661     13659     13662     13664
     13661     13659     13662     13665     13662     13665     13668     13669
     13662     13665     13668     13670     13662     13665     13668     13671
     13663     13662     13665     13666     13663     13662     13665     13667
     13663     13662     13665     13668     13664     13662     13665     13666
     13664     13662     13665     13667     13664     13662     13665     13668
     13665     13668     13671     13672     13665     13668     13671     13673
     13665     13668     13671     13674     13666     13665     13668     13669
     13666     13665     13668     13670     13666     13665     13668     13671
     13667     13665     13668     13669     13667     13665     13668     13670
     13667     13665     13668     13671     13668     13671     13674     13675
     13668     13671     13674     13676     13668     13671     13674     13677
     13669     13668     13671     13672     13669     13668     13671     13673
     13669     13668     13671     13674     13670     13668     13671     13672
     13670     13668     13671     13673     13670     13668     13671     13674
     13671     13674     13677     13678     13671     13674     13677     13679
     13671     13674     13677     13680     13672     13671     13674     13675
     13672     13671     13674     13676     13672     13671     13674     13677
     13673     13671     13674     13675     13673     13671     13674     13676
     13673     13671     13674     13677     13674     13677     13680     13681
     13674     13677     13680     13682     13674     13677     13680     13683
     13675     13674     13677     13678     13675     13674     13677     13679
     13675     13674     13677     13680     13676     13674     13677     13678
     13676     13674     13677     13679     13676     13674     13677     13680
     13677     13680     13683     13684     13677     13680     13683     13685
     13677     13680     13683     13686     13678     13677     13680     13681
     13678     13677     13680     13682     13678     13677     13680     13683
     13679     13677     13680     13681     13679     13677     13680     13682
     13679     13677     13680     13683     13680     13683     13686     13687
     13680     13683     13686     13688     13680     13683     13686     13689
     13681     13680     13683     13684     13681     13680     13683     13685
     13681     13680     13683     13686     13682     13680     13683     13684
     13682     13680     13683     13685     13682     13680     13683     13686
     13683     13686     13689     13690     13683     13686     13689     13691
     13683     13686     13689     13692     13684     13683     13686     13687
     13684     13683     13686     13688     13684     13683     13686     13689
     13685     13683     13686     13687     13685     13683     13686     13688
     13685     13683     13686     13689     13686     13689     13692     13693
     13686     13689     13692     13694     13686     13689     13692     13695
     13687     13686     13689     13690     13687     13686     13689     13691
     13687     13686     13689     13692     13688     13686     13689     13690
     13688     13686     13689     13691     13688     13686     13689     13692
     13689     13692     13695     13696     13689     13692     13695     13697
     13689     13692     13695     13698     13690     13689     13692     13693
     13690     13689     13692     13694     13690     13689     13692     13695
     13691     13689     13692     13693     13691     13689     13692     13694
     13691     13689     13692     13695     13693     13692     13695     13696
     13693     13692     13695     13697     13693     13692     13695     13698
     13694     13692     13695     13696     13694     13692     13695     13697
     13694     13692     13695     13698     13699     13703     13706     13707
     13699     13703     13706     13737     13699     13745     13742     13737
     13699     13745     13742     13743     13699     13745     13742     13744
     13700     13699     13701     13702     13700     13699     13703     13704
     13700     13699     13703     13705     13700     13699     13703     13706
     13700     13699     13745     13742     13700     13699     13745     13746
     13700     13699     13745     13747     13701     13699     13703     13704
     13701     13699     13703     13705     13701     13699     13703     13706
     13701     13699     13745     13742     13701     13699     13745     13746
     13701     13699     13745     13747     13702     13701     13699     13703
     13702     13701     13699     13745     13703     13699     13745     13742
     13703     13699     13745     13746     13703     13699     13745     13747
     13703     13706     13707     13708     13703     13706     13707     13709
     13703     13706     13737     13735     13703     13706     13737     13738
     13703     13706     13737     13742     13704     13703     13699     13745
     13704     13703     13706     13707     13704     13703     13706     13737
     13705     13703     13699     13745     13705     13703     13706     13707
     13705     13703     13706     13737     13706     13703     13699     13745
     13706     13707     13709     13710     13706     13707     13709     13711
     13706     13707     13709     13712     13706     13737     13735     13712
     13706     13737     13735     13732     13706     13737     13735     13736
     13706     13737     13738     13739     13706     13737     13738     13740
     13706     13737     13738     13741     13706     13737     13742     13743
     13706     13737     13742     13744     13706     13737     13742     13745
     13707     13706     13737     13735     13707     13706     13737     13738
     13707     13706     13737     13742     13707     13709     13712     13713
     13707     13709     13712     13714     13707     13709     13712     13735
     13708     13707     13706     13737     13708     13707     13709     13710
     13708     13707     13709     13711     13708     13707     13709     13712
     13709     13707     13706     13737     13709     13712     13714     13715
     13709     13712     13714     13716     13709     13712     13714     13724
     13709     13712     13735     13732     13709     13712     13735     13736
     13709     13712     13735     13737     13710     13709     13712     13713
     13710     13709     13712     13714     13710     13709     13712     13735
     13711     13709     13712     13713     13711     13709     13712     13714
     13711     13709     13712     13735     13712     13714     13716     13717
     13712     13714     13716     13718     13712     13714     13716     13719
     13712     13714     13724     13722     13712     13714     13724     13725
     13712     13714     13724     13729     13712     13735     13732     13729
     13712     13735     13732     13733     13712     13735     13732     13734
     13712     13735     13737     13738     13712     13735     13737     13742
     13713     13712     13714     13715     13713     13712     13714     13716
     13713     13712     13714     13724     13713     13712     13735     13732
     13713     13712     13735     13736     13713     13712     13735     13737
     13714     13712     13735     13732     13714     13712     13735     13736
     13714     13712     13735     13737     13714     13716     13719     13720
     13714     13716     13719     13721     13714     13716     13719     13722
     13714     13724     13722     13719     13714     13724     13722     13723
     13714     13724     13722     13748     13714     13724     13725     13726
     13714     13724     13725     13727     13714     13724     13725     13728
     13714     13724     13729     13730     13714     13724     13729     13731
     13714     13724     13729     13732     13715     13714     13712     13735
     13715     13714     13716     13717     13715     13714     13716     13718
     13715     13714     13716     13719     13715     13714     13724     13722
     13715     13714     13724     13725     13715     13714     13724     13729
     13716     13714     13712     13735     13716     13714     13724     13722
     13716     13714     13724     13725     13716     13714     13724     13729
     13716     13719     13722     13723     13716     13719     13722     13724
     13716     13719     13722     13748     13717     13716     13714     13724
     13717     13716     13719     13720     13717     13716     13719     13721
     13717     13716     13719     13722     13718     13716     13714     13724
     13718     13716     13719     13720     13718     13716     13719     13721
     13718     13716     13719     13722     13719     13716     13714     13724
     13719     13722     13724     13725     13719     13722     13724     13729
     13719     13722     13748     13749     13719     13722     13748     13750
     13719     13722     13748     13754     13720     13719     13722     13723
     13720     13719     13722     13724     13720     13719     13722     13748
     13721     13719     13722     13723     13721     13719     13722     13724
     13721     13719     13722     13748     13722     13724     13725     13726
     13722     13724     13725     13727     13722     13724     13725     13728
     13722     13724     13729     13730     13722     13724     13729     13731
     13722     13724     13729     13732     13722     13748     13750     13751
     13722     13748     13750     13752     13722     13748     13750     13753
     13722     13748     13754     13755     13722     13748     13754     13756
     13722     13748     13754     13757     13723     13722     13724     13725
     13723     13722     13724     13729     13723     13722     13748     13749
     13723     13722     13748     13750     13723     13722     13748     13754
     13724     13714     13712     13735     13724     13722     13748     13749
     13724     13722     13748     13750     13724     13722     13748     13754
     13724     13729     13732     13733     13724     13729     13732     13734
     13724     13729     13732     13735     13725     13724     13722     13748
     13725     13724     13729     13730     13725     13724     13729     13731
     13725     13724     13729     13732     13726     13725     13724     13729
     13727     13725     13724     13729     13728     13725     13724     13729
     13729     13724     13722     13748     13729     13732     13735     13736
     13729     13732     13735     13737     13730     13729     13732     13733
     13730     13729     13732     13734     13730     13729     13732     13735
     13731     13729     13732     13733     13731     13729     13732     13734
     13731     13729     13732     13735     13732     13735     13737     13738
     13732     13735     13737     13742     13733     13732     13735     13736
     13733     13732     13735     13737     13734     13732     13735     13736
     13734     13732     13735     13737     13735     13737     13738     13739
     13735     13737     13738     13740     13735     13737     13738     13741
     13735     13737     13742     13743     13735     13737     13742     13744
     13735     13737     13742     13745     13736     13735     13737     13738
     13736     13735     13737     13742     13737     13742     13745     13746
     13737     13742     13745     13747     13738     13737     13742     13743
     13738     13737     13742     13744     13738     13737     13742     13745
     13739     13738     13737     13742     13740     13738     13737     13742
     13741     13738     13737     13742     13743     13742     13745     13746
     13743     13742     13745     13747     13744     13742     13745     13746
     13744     13742     13745     13747     13748     13754     13757     13758
     13748     13754     13757     13759     13748     13754     13757     13760
     13749     13748     13750     13751     13749     13748     13750     13752
     13749     13748     13750     13753     13749     13748     13754     13755
     13749     13748     13754     13756     13749     13748     13754     13757
     13750     13748     13754     13755     13750     13748     13754     13756
     13750     13748     13754     13757     13751     13750     13748     13754
     13752     13750     13748     13754     13753     13750     13748     13754
     13754     13757     13760     13761     13754     13757     13760     13762
     13754     13757     13760     13763     13755     13754     13757     13758
     13755     13754     13757     13759     13755     13754     13757     13760
     13756     13754     13757     13758     13756     13754     13757     13759
     13756     13754     13757     13760     13757     13760     13763     13764
     13757     13760     13763     13765     13757     13760     13763     13769
     13758     13757     13760     13761     13758     13757     13760     13762
     13758     13757     13760     13763     13759     13757     13760     13761
     13759     13757     13760     13762     13759     13757     13760     13763
     13760     13763     13765     13766     13760     13763     13765     13767
     13760     13763     13765     13768     13760     13763     13769     13770
     13760     13763     13769     13771     13760     13763     13769     13772
     13761     13760     13763     13764     13761     13760     13763     13765
     13761     13760     13763     13769     13762     13760     13763     13764
     13762     13760     13763     13765     13762     13760     13763     13769
     13764     13763     13765     13766     13764     13763     13765     13767
     13764     13763     13765     13768     13764     13763     13769     13770
     13764     13763     13769     13771     13764     13763     13769     13772
     13765     13763     13769     13770     13765     13763     13769     13771
     13765     13763     13769     13772     13766     13765     13763     13769
     13767     13765     13763     13769     13768     13765     13763     13769
     13773     13774     13789     13790     13773     13774     13789     13791
     13773     13774     13789     13795     13774     13773     13777     13778
     13774     13773     13777     13779     13774     13773     13777     13780
     13774     13773     13781     13782     13774     13773     13781     13783
     13774     13773     13781     13784     13774     13773     13785     13786
     13774     13773     13785     13787     13774     13773     13785     13788
     13774     13789     13795     13792     13775     13774     13773     13777
     13775     13774     13773     13781     13775     13774     13773     13785
     13775     13774     13789     13790     13775     13774     13789     13791
     13775     13774     13789     13795     13776     13774     13773     13777
     13776     13774     13773     13781     13776     13774     13773     13785
     13776     13774     13789     13790     13776     13774     13789     13791
     13776     13774     13789     13795     13777     13773     13774     13789
     13777     13773     13781     13782     13777     13773     13781     13783
     13777     13773     13781     13784     13777     13773     13785     13786
     13777     13773     13785     13787     13777     13773     13785     13788
     13778     13777     13773     13781     13778     13777     13773     13785
     13779     13777     13773     13781     13779     13777     13773     13785
     13780     13777     13773     13781     13780     13777     13773     13785
     13781     13773     13774     13789     13781     13773     13785     13786
     13781     13773     13785     13787     13781     13773     13785     13788
     13782     13781     13773     13785     13783     13781     13773     13785
     13784     13781     13773     13785     13785     13773     13774     13789
     13789     13795     13792     13793     13789     13795     13792     13794
     13789     13795     13792     13796     13790     13789     13795     13792
     13791     13789     13795     13792     13792     13796     13797     13798
     13792     13796     13797     13799     13792     13796     13797     13800
     13793     13792     13796     13797     13794     13792     13796     13797
     13795     13792     13796     13797     13796     13797     13800     13801
     13796     13797     13800     13802     13796     13797     13800     13808
     13797     13800     13802     13803     13797     13800     13808     13809
     13797     13800     13808     13810     13797     13800     13808     13811
     13798     13797     13800     13801     13798     13797     13800     13802
     13798     13797     13800     13808     13799     13797     13800     13801
     13799     13797     13800     13802     13799     13797     13800     13808
     13800     13802     13803     13804     13800     13802     13803     13805
     13800     13808     13811     13812     13801     13800     13802     13803
     13801     13800     13808     13809     13801     13800     13808     13810
     13801     13800     13808     13811     13802     13800     13808     13809
     13802     13800     13808     13810     13802     13800     13808     13811
     13802     13803     13805     13806     13802     13803     13805     13807
     13802     13803     13805     13817     13803     13802     13800     13808
     13803     13805     13817     13818     13803     13805     13817     13819
     13803     13805     13817     13820     13804     13803     13805     13806
     13804     13803     13805     13807     13804     13803     13805     13817
     13805     13817     13820     13821     13805     13817     13820     13822
     13805     13817     13820     13823     13806     13805     13817     13818
     13806     13805     13817     13819     13806     13805     13817     13820
     13807     13805     13817     13818     13807     13805     13817     13819
     13807     13805     13817     13820     13808     13811     13812     13813
     13808     13811     13812     13814     13809     13808     13811     13812
     13810     13808     13811     13812     13811     13812     13814     13815
     13811     13812     13814     13816     13811     13812     13814     13864
     13812     13814     13864     13865     13812     13814     13864     13866
     13812     13814     13864     13867     13813     13812     13814     13815
     13813     13812     13814     13816     13813     13812     13814     13864
     13814     13864     13867     13868     13814     13864     13867     13869
     13814     13864     13867     13870     13815     13814     13864     13865
     13815     13814     13864     13866     13815     13814     13864     13867
     13816     13814     13864     13865     13816     13814     13864     13866
     13816     13814     13864     13867     13817     13820     13823     13824
     13817     13820     13823     13825     13818     13817     13820     13821
     13818     13817     13820     13822     13818     13817     13820     13823
     13819     13817     13820     13821     13819     13817     13820     13822
     13819     13817     13820     13823     13820     13823     13825     13826
     13820     13823     13825     13827     13821     13820     13823     13824
     13821     13820     13823     13825     13822     13820     13823     13824
     13822     13820     13823     13825     13823     13825     13827     13828
     13823     13825     13827     13829     13823     13825     13827     13830
     13824     13823     13825     13826     13824     13823     13825     13827
     13825     13827     13830     13831     13825     13827     13830     13832
     13826     13825     13827     13828     13826     13825     13827     13829
     13826     13825     13827     13830     13827     13830     13832     13833
     13827     13830     13832     13834     13828     13827     13830     13831
     13828     13827     13830     13832     13829     13827     13830     13831
     13829     13827     13830     13832     13830     13832     13834     13835
     13830     13832     13834     13836     13830     13832     13834     13837
     13831     13830     13832     13833     13831     13830     13832     13834
     13832     13834     13837     13838     13832     13834     13837     13839
     13833     13832     13834     13835     13833     13832     13834     13836
     13833     13832     13834     13837     13834     13837     13839     13840
     13834     13837     13839     13841     13835     13834     13837     13838
     13835     13834     13837     13839     13836     13834     13837     13838
     13836     13834     13837     13839     13837     13839     13841     13842
     13837     13839     13841     13843     13837     13839     13841     13844
     13838     13837     13839     13840     13838     13837     13839     13841
     13839     13841     13844     13845     13839     13841     13844     13846
     13840     13839     13841     13842     13840     13839     13841     13843
     13840     13839     13841     13844     13841     13844     13846     13847
     13841     13844     13846     13848     13842     13841     13844     13845
     13842     13841     13844     13846     13843     13841     13844     13845
     13843     13841     13844     13846     13844     13846     13848     13849
     13844     13846     13848     13850     13844     13846     13848     13851
     13845     13844     13846     13847     13845     13844     13846     13848
     13846     13848     13851     13852     13846     13848     13851     13853
     13846     13848     13851     13854     13847     13846     13848     13849
     13847     13846     13848     13850     13847     13846     13848     13851
     13848     13851     13854     13855     13848     13851     13854     13856
     13848     13851     13854     13857     13849     13848     13851     13852
     13849     13848     13851     13853     13849     13848     13851     13854
     13850     13848     13851     13852     13850     13848     13851     13853
     13850     13848     13851     13854     13851     13854     13857     13858
     13851     13854     13857     13859     13851     13854     13857     13860
     13852     13851     13854     13855     13852     13851     13854     13856
     13852     13851     13854     13857     13853     13851     13854     13855
     13853     13851     13854     13856     13853     13851     13854     13857
     13854     13857     13860     13861     13854     13857     13860     13862
     13854     13857     13860     13863     13855     13854     13857     13858
     13855     13854     13857     13859     13855     13854     13857     13860
     13856     13854     13857     13858     13856     13854     13857     13859
     13856     13854     13857     13860     13858     13857     13860     13861
     13858     13857     13860     13862     13858     13857     13860     13863
     13859     13857     13860     13861     13859     13857     13860     13862
     13859     13857     13860     13863     13864     13867     13870     13871
     13864     13867     13870     13872     13864     13867     13870     13873
     13865     13864     13867     13868     13865     13864     13867     13869
     13865     13864     13867     13870     13866     13864     13867     13868
     13866     13864     13867     13869     13866     13864     13867     13870
     13867     13870     13873     13874     13867     13870     13873     13875
     13867     13870     13873     13876     13868     13867     13870     13871
     13868     13867     13870     13872     13868     13867     13870     13873
     13869     13867     13870     13871     13869     13867     13870     13872
     13869     13867     13870     13873     13870     13873     13876     13877
     13870     13873     13876     13878     13870     13873     13876     13879
     13871     13870     13873     13874     13871     13870     13873     13875
     13871     13870     13873     13876     13872     13870     13873     13874
     13872     13870     13873     13875     13872     13870     13873     13876
     13873     13876     13879     13880     13873     13876     13879     13881
     13873     13876     13879     13882     13874     13873     13876     13877
     13874     13873     13876     13878     13874     13873     13876     13879
     13875     13873     13876     13877     13875     13873     13876     13878
     13875     13873     13876     13879     13876     13879     13882     13883
     13876     13879     13882     13884     13876     13879     13882     13885
     13877     13876     13879     13880     13877     13876     13879     13881
     13877     13876     13879     13882     13878     13876     13879     13880
     13878     13876     13879     13881     13878     13876     13879     13882
     13879     13882     13885     13886     13879     13882     13885     13887
     13879     13882     13885     13888     13880     13879     13882     13883
     13880     13879     13882     13884     13880     13879     13882     13885
     13881     13879     13882     13883     13881     13879     13882     13884
     13881     13879     13882     13885     13882     13885     13888     13889
     13882     13885     13888     13890     13882     13885     13888     13891
     13883     13882     13885     13886     13883     13882     13885     13887
     13883     13882     13885     13888     13884     13882     13885     13886
     13884     13882     13885     13887     13884     13882     13885     13888
     13885     13888     13891     13892     13885     13888     13891     13893
     13885     13888     13891     13894     13886     13885     13888     13889
     13886     13885     13888     13890     13886     13885     13888     13891
     13887     13885     13888     13889     13887     13885     13888     13890
     13887     13885     13888     13891     13888     13891     13894     13895
     13888     13891     13894     13896     13888     13891     13894     13897
     13889     13888     13891     13892     13889     13888     13891     13893
     13889     13888     13891     13894     13890     13888     13891     13892
     13890     13888     13891     13893     13890     13888     13891     13894
     13891     13894     13897     13898     13891     13894     13897     13899
     13891     13894     13897     13900     13892     13891     13894     13895
     13892     13891     13894     13896     13892     13891     13894     13897
     13893     13891     13894     13895     13893     13891     13894     13896
     13893     13891     13894     13897     13894     13897     13900     13901
     13894     13897     13900     13902     13894     13897     13900     13903
     13895     13894     13897     13898     13895     13894     13897     13899
     13895     13894     13897     13900     13896     13894     13897     13898
     13896     13894     13897     13899     13896     13894     13897     13900
     13897     13900     13903     13904     13897     13900     13903     13905
     13897     13900     13903     13906     13898     13897     13900     13901
     13898     13897     13900     13902     13898     13897     13900     13903
     13899     13897     13900     13901     13899     13897     13900     13902
     13899     13897     13900     13903     13900     13903     13906     13907
     13900     13903     13906     13908     13900     13903     13906     13909
     13901     13900     13903     13904     13901     13900     13903     13905
     13901     13900     13903     13906     13902     13900     13903     13904
     13902     13900     13903     13905     13902     13900     13903     13906
     13903     13906     13909     13910     13903     13906     13909     13911
     13903     13906     13909     13912     13904     13903     13906     13907
     13904     13903     13906     13908     13904     13903     13906     13909
     13905     13903     13906     13907     13905     13903     13906     13908
     13905     13903     13906     13909     13907     13906     13909     13910
     13907     13906     13909     13911     13907     13906     13909     13912
     13908     13906     13909     13910     13908     13906     13909     13911
     13908     13906     13909     13912     13913     13917     13920     13921
     13913     13917     13920     13922     13913     13917     13920     13926
     13914     13913     13917     13918     13914     13913     13917     13919
     13914     13913     13917     13920     13915     13913     13917     13918
     13915     13913     13917     13919     13915     13913     13917     13920
     13916     13913     13917     13918     13916     13913     13917     13919
     13916     13913     13917     13920     13917     13920     13926     13923
     13918     13917     13920     13921     13918     13917     13920     13922
     13918     13917     13920     13926     13919     13917     13920     13921
     13919     13917     13920     13922     13919     13917     13920     13926
     13920     13926     13923     13924     13920     13926     13923     13925
     13920     13926     13923     13927     13921     13920     13926     13923
     13922     13920     13926     13923     13923     13927     13928     13929
     13923     13927     13928     13930     13923     13927     13928     13931
     13924     13923     13927     13928     13925     13923     13927     13928
     13926     13923     13927     13928     13927     13928     13931     13932
     13927     13928     13931     13933     13927     13928     13931     13939
     13928     13931     13933     13934     13928     13931     13939     13940
     13928     13931     13939     13941     13928     13931     13939     13942
     13929     13928     13931     13932     13929     13928     13931     13933
     13929     13928     13931     13939     13930     13928     13931     13932
     13930     13928     13931     13933     13930     13928     13931     13939
     13931     13933     13934     13935     13931     13933     13934     13936
     13931     13939     13942     13943     13932     13931     13933     13934
     13932     13931     13939     13940     13932     13931     13939     13941
     13932     13931     13939     13942     13933     13931     13939     13940
     13933     13931     13939     13941     13933     13931     13939     13942
     13933     13934     13936     13937     13933     13934     13936     13938
     13933     13934     13936     13948     13934     13933     13931     13939
     13934     13936     13948     13949     13934     13936     13948     13950
     13934     13936     13948     13951     13935     13934     13936     13937
     13935     13934     13936     13938     13935     13934     13936     13948
     13936     13948     13951     13952     13936     13948     13951     13953
     13936     13948     13951     13954     13937     13936     13948     13949
     13937     13936     13948     13950     13937     13936     13948     13951
     13938     13936     13948     13949     13938     13936     13948     13950
     13938     13936     13948     13951     13939     13942     13943     13944
     13939     13942     13943     13945     13940     13939     13942     13943
     13941     13939     13942     13943     13942     13943     13945     13946
     13942     13943     13945     13947     13942     13943     13945     13995
     13943     13945     13995     13996     13943     13945     13995     13997
     13943     13945     13995     13998     13944     13943     13945     13946
     13944     13943     13945     13947     13944     13943     13945     13995
     13945     13995     13998     13999     13945     13995     13998     14000
     13945     13995     13998     14001     13946     13945     13995     13996
     13946     13945     13995     13997     13946     13945     13995     13998
     13947     13945     13995     13996     13947     13945     13995     13997
     13947     13945     13995     13998     13948     13951     13954     13955
     13948     13951     13954     13956     13948     13951     13954     13957
     13949     13948     13951     13952     13949     13948     13951     13953
     13949     13948     13951     13954     13950     13948     13951     13952
     13950     13948     13951     13953     13950     13948     13951     13954
     13951     13954     13957     13958     13951     13954     13957     13959
     13951     13954     13957     13960     13952     13951     13954     13955
     13952     13951     13954     13956     13952     13951     13954     13957
     13953     13951     13954     13955     13953     13951     13954     13956
     13953     13951     13954     13957     13954     13957     13960     13961
     13954     13957     13960     13962     13954     13957     13960     13963
     13955     13954     13957     13958     13955     13954     13957     13959
     13955     13954     13957     13960     13956     13954     13957     13958
     13956     13954     13957     13959     13956     13954     13957     13960
     13957     13960     13963     13964     13957     13960     13963     13965
     13957     13960     13963     13966     13958     13957     13960     13961
     13958     13957     13960     13962     13958     13957     13960     13963
     13959     13957     13960     13961     13959     13957     13960     13962
     13959     13957     13960     13963     13960     13963     13966     13967
     13960     13963     13966     13968     13961     13960     13963     13964
     13961     13960     13963     13965     13961     13960     13963     13966
     13962     13960     13963     13964     13962     13960     13963     13965
     13962     13960     13963     13966     13963     13966     13968     13969
     13963     13966     13968     13970     13964     13963     13966     13967
     13964     13963     13966     13968     13965     13963     13966     13967
     13965     13963     13966     13968     13966     13968     13970     13971
     13966     13968     13970     13972     13966     13968     13970     13973
     13967     13966     13968     13969     13967     13966     13968     13970
     13968     13970     13973     13974     13968     13970     13973     13975
     13968     13970     13973     13976     13969     13968     13970     13971
     13969     13968     13970     13972     13969     13968     13970     13973
     13970     13973     13976     13977     13970     13973     13976     13978
     13970     13973     13976     13979     13971     13970     13973     13974
     13971     13970     13973     13975     13971     13970     13973     13976
     13972     13970     13973     13974     13972     13970     13973     13975
     13972     13970     13973     13976     13973     13976     13979     13980
     13973     13976     13979     13981     13973     13976     13979     13982
     13974     13973     13976     13977     13974     13973     13976     13978
     13974     13973     13976     13979     13975     13973     13976     13977
     13975     13973     13976     13978     13975     13973     13976     13979
     13976     13979     13982     13983     13976     13979     13982     13984
     13976     13979     13982     13985     13977     13976     13979     13980
     13977     13976     13979     13981     13977     13976     13979     13982
     13978     13976     13979     13980     13978     13976     13979     13981
     13978     13976     13979     13982     13979     13982     13985     13986
     13979     13982     13985     13987     13979     13982     13985     13988
     13980     13979     13982     13983     13980     13979     13982     13984
     13980     13979     13982     13985     13981     13979     13982     13983
     13981     13979     13982     13984     13981     13979     13982     13985
     13982     13985     13988     13989     13982     13985     13988     13990
     13982     13985     13988     13991     13983     13982     13985     13986
     13983     13982     13985     13987     13983     13982     13985     13988
     13984     13982     13985     13986     13984     13982     13985     13987
     13984     13982     13985     13988     13985     13988     13991     13992
     13985     13988     13991     13993     13985     13988     13991     13994
     13986     13985     13988     13989     13986     13985     13988     13990
     13986     13985     13988     13991     13987     13985     13988     13989
     13987     13985     13988     13990     13987     13985     13988     13991
     13989     13988     13991     13992     13989     13988     13991     13993
     13989     13988     13991     13994     13990     13988     13991     13992
     13990     13988     13991     13993     13990     13988     13991     13994
     13995     13998     14001     14002     13995     13998     14001     14003
     13995     13998     14001     14004     13996     13995     13998     13999
     13996     13995     13998     14000     13996     13995     13998     14001
     13997     13995     13998     13999     13997     13995     13998     14000
     13997     13995     13998     14001     13998     14001     14004     14005
     13998     14001     14004     14006     13998     14001     14004     14007
     13999     13998     14001     14002     13999     13998     14001     14003
     13999     13998     14001     14004     14000     13998     14001     14002
     14000     13998     14001     14003     14000     13998     14001     14004
     14001     14004     14007     14008     14001     14004     14007     14009
     14001     14004     14007     14010     14002     14001     14004     14005
     14002     14001     14004     14006     14002     14001     14004     14007
     14003     14001     14004     14005     14003     14001     14004     14006
     14003     14001     14004     14007     14004     14007     14010     14011
     14004     14007     14010     14012     14004     14007     14010     14013
     14005     14004     14007     14008     14005     14004     14007     14009
     14005     14004     14007     14010     14006     14004     14007     14008
     14006     14004     14007     14009     14006     14004     14007     14010
     14007     14010     14013     14014     14007     14010     14013     14015
     14007     14010     14013     14016     14008     14007     14010     14011
     14008     14007     14010     14012     14008     14007     14010     14013
     14009     14007     14010     14011     14009     14007     14010     14012
     14009     14007     14010     14013     14010     14013     14016     14017
     14010     14013     14016     14018     14010     14013     14016     14019
     14011     14010     14013     14014     14011     14010     14013     14015
     14011     14010     14013     14016     14012     14010     14013     14014
     14012     14010     14013     14015     14012     14010     14013     14016
     14013     14016     14019     14020     14013     14016     14019     14021
     14013     14016     14019     14022     14014     14013     14016     14017
     14014     14013     14016     14018     14014     14013     14016     14019
     14015     14013     14016     14017     14015     14013     14016     14018
     14015     14013     14016     14019     14016     14019     14022     14023
     14016     14019     14022     14024     14016     14019     14022     14025
     14017     14016     14019     14020     14017     14016     14019     14021
     14017     14016     14019     14022     14018     14016     14019     14020
     14018     14016     14019     14021     14018     14016     14019     14022
     14019     14022     14025     14026     14019     14022     14025     14027
     14019     14022     14025     14028     14020     14019     14022     14023
     14020     14019     14022     14024     14020     14019     14022     14025
     14021     14019     14022     14023     14021     14019     14022     14024
     14021     14019     14022     14025     14022     14025     14028     14029
     14022     14025     14028     14030     14022     14025     14028     14031
     14023     14022     14025     14026     14023     14022     14025     14027
     14023     14022     14025     14028     14024     14022     14025     14026
     14024     14022     14025     14027     14024     14022     14025     14028
     14025     14028     14031     14032     14025     14028     14031     14033
     14025     14028     14031     14034     14026     14025     14028     14029
     14026     14025     14028     14030     14026     14025     14028     14031
     14027     14025     14028     14029     14027     14025     14028     14030
     14027     14025     14028     14031     14028     14031     14034     14035
     14028     14031     14034     14036     14028     14031     14034     14037
     14029     14028     14031     14032     14029     14028     14031     14033
     14029     14028     14031     14034     14030     14028     14031     14032
     14030     14028     14031     14033     14030     14028     14031     14034
     14031     14034     14037     14038     14031     14034     14037     14039
     14031     14034     14037     14040     14032     14031     14034     14035
     14032     14031     14034     14036     14032     14031     14034     14037
     14033     14031     14034     14035     14033     14031     14034     14036
     14033     14031     14034     14037     14034     14037     14040     14041
     14034     14037     14040     14042     14034     14037     14040     14043
     14035     14034     14037     14038     14035     14034     14037     14039
     14035     14034     14037     14040     14036     14034     14037     14038
     14036     14034     14037     14039     14036     14034     14037     14040
     14038     14037     14040     14041     14038     14037     14040     14042
     14038     14037     14040     14043     14039     14037     14040     14041
     14039     14037     14040     14042     14039     14037     14040     14043
     14044     14048     14051     14052     14044     14048     14051     14053
     14044     14048     14051     14057     14045     14044     14048     14049
     14045     14044     14048     14050     14045     14044     14048     14051
     14046     14044     14048     14049     14046     14044     14048     14050
     14046     14044     14048     14051     14047     14044     14048     14049
     14047     14044     14048     14050     14047     14044     14048     14051
     14048     14051     14057     14054     14049     14048     14051     14052
     14049     14048     14051     14053     14049     14048     14051     14057
     14050     14048     14051     14052     14050     14048     14051     14053
     14050     14048     14051     14057     14051     14057     14054     14055
     14051     14057     14054     14056     14051     14057     14054     14058
     14052     14051     14057     14054     14053     14051     14057     14054
     14054     14058     14059     14060     14054     14058     14059     14061
     14054     14058     14059     14062     14055     14054     14058     14059
     14056     14054     14058     14059     14057     14054     14058     14059
     14058     14059     14062     14063     14058     14059     14062     14064
     14058     14059     14062     14070     14059     14062     14064     14065
     14059     14062     14070     14071     14059     14062     14070     14072
     14059     14062     14070     14073     14060     14059     14062     14063
     14060     14059     14062     14064     14060     14059     14062     14070
     14061     14059     14062     14063     14061     14059     14062     14064
     14061     14059     14062     14070     14062     14064     14065     14066
     14062     14064     14065     14067     14062     14070     14073     14074
     14063     14062     14064     14065     14063     14062     14070     14071
     14063     14062     14070     14072     14063     14062     14070     14073
     14064     14062     14070     14071     14064     14062     14070     14072
     14064     14062     14070     14073     14064     14065     14067     14068
     14064     14065     14067     14069     14064     14065     14067     14079
     14065     14064     14062     14070     14065     14067     14079     14080
     14065     14067     14079     14081     14065     14067     14079     14082
     14066     14065     14067     14068     14066     14065     14067     14069
     14066     14065     14067     14079     14067     14079     14082     14083
     14067     14079     14082     14084     14067     14079     14082     14085
     14068     14067     14079     14080     14068     14067     14079     14081
     14068     14067     14079     14082     14069     14067     14079     14080
     14069     14067     14079     14081     14069     14067     14079     14082
     14070     14073     14074     14075     14070     14073     14074     14076
     14071     14070     14073     14074     14072     14070     14073     14074
     14073     14074     14076     14077     14073     14074     14076     14078
     14073     14074     14076     14126     14074     14076     14126     14127
     14074     14076     14126     14128     14074     14076     14126     14129
     14075     14074     14076     14077     14075     14074     14076     14078
     14075     14074     14076     14126     14076     14126     14129     14130
     14076     14126     14129     14131     14076     14126     14129     14132
     14077     14076     14126     14127     14077     14076     14126     14128
     14077     14076     14126     14129     14078     14076     14126     14127
     14078     14076     14126     14128     14078     14076     14126     14129
     14079     14082     14085     14086     14079     14082     14085     14087
     14079     14082     14085     14088     14080     14079     14082     14083
     14080     14079     14082     14084     14080     14079     14082     14085
     14081     14079     14082     14083     14081     14079     14082     14084
     14081     14079     14082     14085     14082     14085     14088     14089
     14082     14085     14088     14090     14082     14085     14088     14091
     14083     14082     14085     14086     14083     14082     14085     14087
     14083     14082     14085     14088     14084     14082     14085     14086
     14084     14082     14085     14087     14084     14082     14085     14088
     14085     14088     14091     14092     14085     14088     14091     14093
     14085     14088     14091     14094     14086     14085     14088     14089
     14086     14085     14088     14090     14086     14085     14088     14091
     14087     14085     14088     14089     14087     14085     14088     14090
     14087     14085     14088     14091     14088     14091     14094     14095
     14088     14091     14094     14096     14088     14091     14094     14097
     14089     14088     14091     14092     14089     14088     14091     14093
     14089     14088     14091     14094     14090     14088     14091     14092
     14090     14088     14091     14093     14090     14088     14091     14094
     14091     14094     14097     14098     14091     14094     14097     14099
     14092     14091     14094     14095     14092     14091     14094     14096
     14092     14091     14094     14097     14093     14091     14094     14095
     14093     14091     14094     14096     14093     14091     14094     14097
     14094     14097     14099     14100     14094     14097     14099     14101
     14095     14094     14097     14098     14095     14094     14097     14099
     14096     14094     14097     14098     14096     14094     14097     14099
     14097     14099     14101     14102     14097     14099     14101     14103
     14097     14099     14101     14104     14098     14097     14099     14100
     14098     14097     14099     14101     14099     14101     14104     14105
     14099     14101     14104     14106     14099     14101     14104     14107
     14100     14099     14101     14102     14100     14099     14101     14103
     14100     14099     14101     14104     14101     14104     14107     14108
     14101     14104     14107     14109     14101     14104     14107     14110
     14102     14101     14104     14105     14102     14101     14104     14106
     14102     14101     14104     14107     14103     14101     14104     14105
     14103     14101     14104     14106     14103     14101     14104     14107
     14104     14107     14110     14111     14104     14107     14110     14112
     14104     14107     14110     14113     14105     14104     14107     14108
     14105     14104     14107     14109     14105     14104     14107     14110
     14106     14104     14107     14108     14106     14104     14107     14109
     14106     14104     14107     14110     14107     14110     14113     14114
     14107     14110     14113     14115     14107     14110     14113     14116
     14108     14107     14110     14111     14108     14107     14110     14112
     14108     14107     14110     14113     14109     14107     14110     14111
     14109     14107     14110     14112     14109     14107     14110     14113
     14110     14113     14116     14117     14110     14113     14116     14118
     14110     14113     14116     14119     14111     14110     14113     14114
     14111     14110     14113     14115     14111     14110     14113     14116
     14112     14110     14113     14114     14112     14110     14113     14115
     14112     14110     14113     14116     14113     14116     14119     14120
     14113     14116     14119     14121     14113     14116     14119     14122
     14114     14113     14116     14117     14114     14113     14116     14118
     14114     14113     14116     14119     14115     14113     14116     14117
     14115     14113     14116     14118     14115     14113     14116     14119
     14116     14119     14122     14123     14116     14119     14122     14124
     14116     14119     14122     14125     14117     14116     14119     14120
     14117     14116     14119     14121     14117     14116     14119     14122
     14118     14116     14119     14120     14118     14116     14119     14121
     14118     14116     14119     14122     14120     14119     14122     14123
     14120     14119     14122     14124     14120     14119     14122     14125
     14121     14119     14122     14123     14121     14119     14122     14124
     14121     14119     14122     14125     14126     14129     14132     14133
     14126     14129     14132     14134     14126     14129     14132     14135
     14127     14126     14129     14130     14127     14126     14129     14131
     14127     14126     14129     14132     14128     14126     14129     14130
     14128     14126     14129     14131     14128     14126     14129     14132
     14129     14132     14135     14136     14129     14132     14135     14137
     14129     14132     14135     14138     14130     14129     14132     14133
     14130     14129     14132     14134     14130     14129     14132     14135
     14131     14129     14132     14133     14131     14129     14132     14134
     14131     14129     14132     14135     14132     14135     14138     14139
     14132     14135     14138     14140     14132     14135     14138     14141
     14133     14132     14135     14136     14133     14132     14135     14137
     14133     14132     14135     14138     14134     14132     14135     14136
     14134     14132     14135     14137     14134     14132     14135     14138
     14135     14138     14141     14142     14135     14138     14141     14143
     14135     14138     14141     14144     14136     14135     14138     14139
     14136     14135     14138     14140     14136     14135     14138     14141
     14137     14135     14138     14139     14137     14135     14138     14140
     14137     14135     14138     14141     14138     14141     14144     14145
     14138     14141     14144     14146     14138     14141     14144     14147
     14139     14138     14141     14142     14139     14138     14141     14143
     14139     14138     14141     14144     14140     14138     14141     14142
     14140     14138     14141     14143     14140     14138     14141     14144
     14141     14144     14147     14148     14141     14144     14147     14149
     14141     14144     14147     14150     14142     14141     14144     14145
     14142     14141     14144     14146     14142     14141     14144     14147
     14143     14141     14144     14145     14143     14141     14144     14146
     14143     14141     14144     14147     14144     14147     14150     14151
     14144     14147     14150     14152     14144     14147     14150     14153
     14145     14144     14147     14148     14145     14144     14147     14149
     14145     14144     14147     14150     14146     14144     14147     14148
     14146     14144     14147     14149     14146     14144     14147     14150
     14147     14150     14153     14154     14147     14150     14153     14155
     14147     14150     14153     14156     14148     14147     14150     14151
     14148     14147     14150     14152     14148     14147     14150     14153
     14149     14147     14150     14151     14149     14147     14150     14152
     14149     14147     14150     14153     14150     14153     14156     14157
     14150     14153     14156     14158     14150     14153     14156     14159
     14151     14150     14153     14154     14151     14150     14153     14155
     14151     14150     14153     14156     14152     14150     14153     14154
     14152     14150     14153     14155     14152     14150     14153     14156
     14153     14156     14159     14160     14153     14156     14159     14161
     14153     14156     14159     14162     14154     14153     14156     14157
     14154     14153     14156     14158     14154     14153     14156     14159
     14155     14153     14156     14157     14155     14153     14156     14158
     14155     14153     14156     14159     14156     14159     14162     14163
     14156     14159     14162     14164     14156     14159     14162     14165
     14157     14156     14159     14160     14157     14156     14159     14161
     14157     14156     14159     14162     14158     14156     14159     14160
     14158     14156     14159     14161     14158     14156     14159     14162
     14159     14162     14165     14166     14159     14162     14165     14167
     14159     14162     14165     14168     14160     14159     14162     14163
     14160     14159     14162     14164     14160     14159     14162     14165
     14161     14159     14162     14163     14161     14159     14162     14164
     14161     14159     14162     14165     14162     14165     14168     14169
     14162     14165     14168     14170     14162     14165     14168     14171
     14163     14162     14165     14166     14163     14162     14165     14167
     14163     14162     14165     14168     14164     14162     14165     14166
     14164     14162     14165     14167     14164     14162     14165     14168
     14165     14168     14171     14172     14165     14168     14171     14173
     14165     14168     14171     14174     14166     14165     14168     14169
     14166     14165     14168     14170     14166     14165     14168     14171
     14167     14165     14168     14169     14167     14165     14168     14170
     14167     14165     14168     14171     14169     14168     14171     14172
     14169     14168     14171     14173     14169     14168     14171     14174
     14170     14168     14171     14172     14170     14168     14171     14173
     14170     14168     14171     14174     14175     14179     14181     14182
     14175     14179     14181     14183     14175     14179     14184     14185
     14175     14179     14184     14186     14175     14179     14184     14190
     14176     14175     14179     14180     14176     14175     14179     14181
     14176     14175     14179     14184     14177     14175     14179     14180
     14177     14175     14179     14181     14177     14175     14179     14184
     14178     14175     14179     14180     14178     14175     14179     14181
     14178     14175     14179     14184     14179     14184     14190     14187
     14180     14179     14181     14182     14180     14179     14181     14183
     14180     14179     14184     14185     14180     14179     14184     14186
     14180     14179     14184     14190     14181     14179     14184     14185
     14181     14179     14184     14186     14181     14179     14184     14190
     14182     14181     14179     14184     14183     14181     14179     14184
     14184     14190     14187     14188     14184     14190     14187     14189
     14184     14190     14187     14191     14185     14184     14190     14187
     14186     14184     14190     14187     14187     14191     14192     14193
     14187     14191     14192     14194     14187     14191     14192     14195
     14188     14187     14191     14192     14189     14187     14191     14192
     14190     14187     14191     14192     14191     14192     14195     14196
     14191     14192     14195     14197     14191     14192     14195     14203
     14192     14195     14197     14198     14192     14195     14203     14204
     14192     14195     14203     14205     14192     14195     14203     14206
     14193     14192     14195     14196     14193     14192     14195     14197
     14193     14192     14195     14203     14194     14192     14195     14196
     14194     14192     14195     14197     14194     14192     14195     14203
     14195     14197     14198     14199     14195     14197     14198     14200
     14195     14203     14206     14207     14196     14195     14197     14198
     14196     14195     14203     14204     14196     14195     14203     14205
     14196     14195     14203     14206     14197     14195     14203     14204
     14197     14195     14203     14205     14197     14195     14203     14206
     14197     14198     14200     14201     14197     14198     14200     14202
     14197     14198     14200     14212     14198     14197     14195     14203
     14198     14200     14212     14213     14198     14200     14212     14214
     14198     14200     14212     14215     14199     14198     14200     14201
     14199     14198     14200     14202     14199     14198     14200     14212
     14200     14212     14215     14216     14200     14212     14215     14217
     14200     14212     14215     14218     14201     14200     14212     14213
     14201     14200     14212     14214     14201     14200     14212     14215
     14202     14200     14212     14213     14202     14200     14212     14214
     14202     14200     14212     14215     14203     14206     14207     14208
     14203     14206     14207     14209     14204     14203     14206     14207
     14205     14203     14206     14207     14206     14207     14209     14210
     14206     14207     14209     14211     14206     14207     14209     14259
     14207     14209     14259     14260     14207     14209     14259     14261
     14207     14209     14259     14262     14208     14207     14209     14210
     14208     14207     14209     14211     14208     14207     14209     14259
     14209     14259     14262     14263     14209     14259     14262     14264
     14209     14259     14262     14265     14210     14209     14259     14260
     14210     14209     14259     14261     14210     14209     14259     14262
     14211     14209     14259     14260     14211     14209     14259     14261
     14211     14209     14259     14262     14212     14215     14218     14219
     14212     14215     14218     14220     14213     14212     14215     14216
     14213     14212     14215     14217     14213     14212     14215     14218
     14214     14212     14215     14216     14214     14212     14215     14217
     14214     14212     14215     14218     14215     14218     14220     14221
     14215     14218     14220     14222     14216     14215     14218     14219
     14216     14215     14218     14220     14217     14215     14218     14219
     14217     14215     14218     14220     14218     14220     14222     14223
     14218     14220     14222     14224     14218     14220     14222     14225
     14219     14218     14220     14221     14219     14218     14220     14222
     14220     14222     14225     14226     14220     14222     14225     14227
     14221     14220     14222     14223     14221     14220     14222     14224
     14221     14220     14222     14225     14222     14225     14227     14228
     14222     14225     14227     14229     14223     14222     14225     14226
     14223     14222     14225     14227     14224     14222     14225     14226
     14224     14222     14225     14227     14225     14227     14229     14230
     14225     14227     14229     14231     14225     14227     14229     14232
     14226     14225     14227     14228     14226     14225     14227     14229
     14227     14229     14232     14233     14227     14229     14232     14234
     14228     14227     14229     14230     14228     14227     14229     14231
     14228     14227     14229     14232     14229     14232     14234     14235
     14229     14232     14234     14236     14230     14229     14232     14233
     14230     14229     14232     14234     14231     14229     14232     14233
     14231     14229     14232     14234     14232     14234     14236     14237
     14232     14234     14236     14238     14232     14234     14236     14239
     14233     14232     14234     14235     14233     14232     14234     14236
     14234     14236     14239     14240     14234     14236     14239     14241
     14235     14234     14236     14237     14235     14234     14236     14238
     14235     14234     14236     14239     14236     14239     14241     14242
     14236     14239     14241     14243     14237     14236     14239     14240
     14237     14236     14239     14241     14238     14236     14239     14240
     14238     14236     14239     14241     14239     14241     14243     14244
     14239     14241     14243     14245     14239     14241     14243     14246
     14240     14239     14241     14242     14240     14239     14241     14243
     14241     14243     14246     14247     14241     14243     14246     14248
     14241     14243     14246     14249     14242     14241     14243     14244
     14242     14241     14243     14245     14242     14241     14243     14246
     14243     14246     14249     14250     14243     14246     14249     14251
     14243     14246     14249     14252     14244     14243     14246     14247
     14244     14243     14246     14248     14244     14243     14246     14249
     14245     14243     14246     14247     14245     14243     14246     14248
     14245     14243     14246     14249     14246     14249     14252     14253
     14246     14249     14252     14254     14246     14249     14252     14255
     14247     14246     14249     14250     14247     14246     14249     14251
     14247     14246     14249     14252     14248     14246     14249     14250
     14248     14246     14249     14251     14248     14246     14249     14252
     14249     14252     14255     14256     14249     14252     14255     14257
     14249     14252     14255     14258     14250     14249     14252     14253
     14250     14249     14252     14254     14250     14249     14252     14255
     14251     14249     14252     14253     14251     14249     14252     14254
     14251     14249     14252     14255     14253     14252     14255     14256
     14253     14252     14255     14257     14253     14252     14255     14258
     14254     14252     14255     14256     14254     14252     14255     14257
     14254     14252     14255     14258     14259     14262     14265     14266
     14259     14262     14265     14267     14259     14262     14265     14268
     14260     14259     14262     14263     14260     14259     14262     14264
     14260     14259     14262     14265     14261     14259     14262     14263
     14261     14259     14262     14264     14261     14259     14262     14265
     14262     14265     14268     14269     14262     14265     14268     14270
     14262     14265     14268     14271     14263     14262     14265     14266
     14263     14262     14265     14267     14263     14262     14265     14268
     14264     14262     14265     14266     14264     14262     14265     14267
     14264     14262     14265     14268     14265     14268     14271     14272
     14265     14268     14271     14273     14265     14268     14271     14274
     14266     14265     14268     14269     14266     14265     14268     14270
     14266     14265     14268     14271     14267     14265     14268     14269
     14267     14265     14268     14270     14267     14265     14268     14271
     14268     14271     14274     14275     14268     14271     14274     14276
     14268     14271     14274     14277     14269     14268     14271     14272
     14269     14268     14271     14273     14269     14268     14271     14274
     14270     14268     14271     14272     14270     14268     14271     14273
     14270     14268     14271     14274     14271     14274     14277     14278
     14271     14274     14277     14279     14271     14274     14277     14280
     14272     14271     14274     14275     14272     14271     14274     14276
     14272     14271     14274     14277     14273     14271     14274     14275
     14273     14271     14274     14276     14273     14271     14274     14277
     14274     14277     14280     14281     14274     14277     14280     14282
     14274     14277     14280     14283     14275     14274     14277     14278
     14275     14274     14277     14279     14275     14274     14277     14280
     14276     14274     14277     14278     14276     14274     14277     14279
     14276     14274     14277     14280     14277     14280     14283     14284
     14277     14280     14283     14285     14277     14280     14283     14286
     14278     14277     14280     14281     14278     14277     14280     14282
     14278     14277     14280     14283     14279     14277     14280     14281
     14279     14277     14280     14282     14279     14277     14280     14283
     14280     14283     14286     14287     14280     14283     14286     14288
     14280     14283     14286     14289     14281     14280     14283     14284
     14281     14280     14283     14285     14281     14280     14283     14286
     14282     14280     14283     14284     14282     14280     14283     14285
     14282     14280     14283     14286     14283     14286     14289     14290
     14283     14286     14289     14291     14283     14286     14289     14292
     14284     14283     14286     14287     14284     14283     14286     14288
     14284     14283     14286     14289     14285     14283     14286     14287
     14285     14283     14286     14288     14285     14283     14286     14289
     14286     14289     14292     14293     14286     14289     14292     14294
     14286     14289     14292     14295     14287     14286     14289     14290
     14287     14286     14289     14291     14287     14286     14289     14292
     14288     14286     14289     14290     14288     14286     14289     14291
     14288     14286     14289     14292     14289     14292     14295     14296
     14289     14292     14295     14297     14289     14292     14295     14298
     14290     14289     14292     14293     14290     14289     14292     14294
     14290     14289     14292     14295     14291     14289     14292     14293
     14291     14289     14292     14294     14291     14289     14292     14295
     14292     14295     14298     14299     14292     14295     14298     14300
     14292     14295     14298     14301     14293     14292     14295     14296
     14293     14292     14295     14297     14293     14292     14295     14298
     14294     14292     14295     14296     14294     14292     14295     14297
     14294     14292     14295     14298     14295     14298     14301     14302
     14295     14298     14301     14303     14295     14298     14301     14304
     14296     14295     14298     14299     14296     14295     14298     14300
     14296     14295     14298     14301     14297     14295     14298     14299
     14297     14295     14298     14300     14297     14295     14298     14301
     14298     14301     14304     14305     14298     14301     14304     14306
     14298     14301     14304     14307     14299     14298     14301     14302
     14299     14298     14301     14303     14299     14298     14301     14304
     14300     14298     14301     14302     14300     14298     14301     14303
     14300     14298     14301     14304     14302     14301     14304     14305
     14302     14301     14304     14306     14302     14301     14304     14307
     14303     14301     14304     14305     14303     14301     14304     14306
     14303     14301     14304     14307     14308     14321     14324     14325
     14308     14321     14324     14326     14308     14321     14324     14331
     14309     14308     14313     14314     14309     14308     14313     14315
     14309     14308     14313     14316     14309     14308     14317     14318
     14309     14308     14317     14319     14309     14308     14317     14320
     14309     14308     14321     14322     14309     14308     14321     14323
     14309     14308     14321     14324     14310     14309     14308     14313
     14310     14309     14308     14317     14310     14309     14308     14321
     14311     14309     14308     14313     14311     14309     14308     14317
     14311     14309     14308     14321     14312     14309     14308     14313
     14312     14309     14308     14317     14312     14309     14308     14321
     14313     14308     14317     14318     14313     14308     14317     14319
     14313     14308     14317     14320     14313     14308     14321     14322
     14313     14308     14321     14323     14313     14308     14321     14324
     14314     14313     14308     14317     14314     14313     14308     14321
     14315     14313     14308     14317     14315     14313     14308     14321
     14316     14313     14308     14317     14316     14313     14308     14321
     14317     14308     14321     14322     14317     14308     14321     14323
     14317     14308     14321     14324     14318     14317     14308     14321
     14319     14317     14308     14321     14320     14317     14308     14321
     14321     14324     14331     14327     14322     14321     14324     14325
     14322     14321     14324     14326     14322     14321     14324     14331
     14323     14321     14324     14325     14323     14321     14324     14326
     14323     14321     14324     14331     14324     14331     14327     14328
     14324     14331     14327     14329     14324     14331     14327     14330
     14325     14324     14331     14327     14326     14324     14331     14327
     14327     14330     14332     14333     14327     14330     14332     14334
     14327     14330     14332     14337     14328     14327     14330     14332
     14329     14327     14330     14332     14330     14332     14337     14335
     14330     14332     14337     14338     14330     14332     14337     14339
     14331     14327     14330     14332     14332     14337     14335     14336
     14332     14337     14335     14387     14332     14337     14339     14340
     14332     14337     14339     14341     14332     14337     14339     14343
     14333     14332     14337     14335     14333     14332     14337     14338
     14333     14332     14337     14339     14334     14332     14337     14335
     14334     14332     14337     14338     14334     14332     14337     14339
     14335     14337     14339     14340     14335     14337     14339     14341
     14335     14337     14339     14343     14335     14387     14389     14390
     14335     14387     14389     14391     14335     14387     14389     14392
     14336     14335     14337     14338     14336     14335     14337     14339
     14336     14335     14387     14388     14336     14335     14387     14389
     14337     14335     14387     14388     14337     14335     14387     14389
     14337     14339     14341     14342     14337     14339     14343     14344
     14337     14339     14343     14345     14338     14337     14335     14387
     14338     14337     14339     14340     14338     14337     14339     14341
     14338     14337     14339     14343     14339     14337     14335     14387
     14339     14343     14345     14346     14339     14343     14345     14347
     14340     14339     14341     14342     14340     14339     14343     14344
     14340     14339     14343     14345     14341     14339     14343     14344
     14341     14339     14343     14345     14342     14341     14339     14343
     14343     14345     14347     14348     14343     14345     14347     14349
     14343     14345     14347     14350     14344     14343     14345     14346
     14344     14343     14345     14347     14345     14347     14350     14351
     14345     14347     14350     14352     14345     14347     14350     14353
     14346     14345     14347     14348     14346     14345     14347     14349
     14346     14345     14347     14350     14347     14350     14353     14354
     14347     14350     14353     14355     14347     14350     14353     14356
     14348     14347     14350     14351     14348     14347     14350     14352
     14348     14347     14350     14353     14349     14347     14350     14351
     14349     14347     14350     14352     14349     14347     14350     14353
     14350     14353     14356     14357     14350     14353     14356     14358
     14350     14353     14356     14359     14351     14350     14353     14354
     14351     14350     14353     14355     14351     14350     14353     14356
     14352     14350     14353     14354     14352     14350     14353     14355
     14352     14350     14353     14356     14353     14356     14359     14360
     14353     14356     14359     14361     14353     14356     14359     14362
     14354     14353     14356     14357     14354     14353     14356     14358
     14354     14353     14356     14359     14355     14353     14356     14357
     14355     14353     14356     14358     14355     14353     14356     14359
     14356     14359     14362     14363     14356     14359     14362     14364
     14356     14359     14362     14365     14357     14356     14359     14360
     14357     14356     14359     14361     14357     14356     14359     14362
     14358     14356     14359     14360     14358     14356     14359     14361
     14358     14356     14359     14362     14359     14362     14365     14366
     14359     14362     14365     14367     14359     14362     14365     14368
     14360     14359     14362     14363     14360     14359     14362     14364
     14360     14359     14362     14365     14361     14359     14362     14363
     14361     14359     14362     14364     14361     14359     14362     14365
     14362     14365     14368     14369     14362     14365     14368     14370
     14362     14365     14368     14371     14363     14362     14365     14366
     14363     14362     14365     14367     14363     14362     14365     14368
     14364     14362     14365     14366     14364     14362     14365     14367
     14364     14362     14365     14368     14365     14368     14371     14372
     14365     14368     14371     14373     14365     14368     14371     14374
     14366     14365     14368     14369     14366     14365     14368     14370
     14366     14365     14368     14371     14367     14365     14368     14369
     14367     14365     14368     14370     14367     14365     14368     14371
     14368     14371     14374     14375     14368     14371     14374     14376
     14368     14371     14374     14377     14369     14368     14371     14372
     14369     14368     14371     14373     14369     14368     14371     14374
     14370     14368     14371     14372     14370     14368     14371     14373
     14370     14368     14371     14374     14371     14374     14377     14378
     14371     14374     14377     14379     14371     14374     14377     14380
     14372     14371     14374     14375     14372     14371     14374     14376
     14372     14371     14374     14377     14373     14371     14374     14375
     14373     14371     14374     14376     14373     14371     14374     14377
     14374     14377     14380     14381     14374     14377     14380     14382
     14374     14377     14380     14383     14375     14374     14377     14378
     14375     14374     14377     14379     14375     14374     14377     14380
     14376     14374     14377     14378     14376     14374     14377     14379
     14376     14374     14377     14380     14377     14380     14383     14384
     14377     14380     14383     14385     14377     14380     14383     14386
     14378     14377     14380     14381     14378     14377     14380     14382
     14378     14377     14380     14383     14379     14377     14380     14381
     14379     14377     14380     14382     14379     14377     14380     14383
     14381     14380     14383     14384     14381     14380     14383     14385
     14381     14380     14383     14386     14382     14380     14383     14384
     14382     14380     14383     14385     14382     14380     14383     14386
     14387     14389     14392     14393     14387     14389     14392     14394
     14387     14389     14392     14395     14388     14387     14389     14390
     14388     14387     14389     14391     14388     14387     14389     14392
     14389     14392     14395     14396     14389     14392     14395     14397
     14389     14392     14395     14398     14390     14389     14392     14393
     14390     14389     14392     14394     14390     14389     14392     14395
     14391     14389     14392     14393     14391     14389     14392     14394
     14391     14389     14392     14395     14392     14395     14398     14399
     14392     14395     14398     14400     14392     14395     14398     14401
     14393     14392     14395     14396     14393     14392     14395     14397
     14393     14392     14395     14398     14394     14392     14395     14396
     14394     14392     14395     14397     14394     14392     14395     14398
     14395     14398     14401     14402     14395     14398     14401     14403
     14395     14398     14401     14404     14396     14395     14398     14399
     14396     14395     14398     14400     14396     14395     14398     14401
     14397     14395     14398     14399     14397     14395     14398     14400
     14397     14395     14398     14401     14398     14401     14404     14405
     14398     14401     14404     14406     14398     14401     14404     14407
     14399     14398     14401     14402     14399     14398     14401     14403
     14399     14398     14401     14404     14400     14398     14401     14402
     14400     14398     14401     14403     14400     14398     14401     14404
     14401     14404     14407     14408     14401     14404     14407     14409
     14401     14404     14407     14410     14402     14401     14404     14405
     14402     14401     14404     14406     14402     14401     14404     14407
     14403     14401     14404     14405     14403     14401     14404     14406
     14403     14401     14404     14407     14404     14407     14410     14411
     14404     14407     14410     14412     14405     14404     14407     14408
     14405     14404     14407     14409     14405     14404     14407     14410
     14406     14404     14407     14408     14406     14404     14407     14409
     14406     14404     14407     14410     14407     14410     14412     14413
     14407     14410     14412     14414     14408     14407     14410     14411
     14408     14407     14410     14412     14409     14407     14410     14411
     14409     14407     14410     14412     14410     14412     14414     14415
     14410     14412     14414     14416     14410     14412     14414     14417
     14411     14410     14412     14413     14411     14410     14412     14414
     14412     14414     14417     14418     14412     14414     14417     14419
     14412     14414     14417     14420     14413     14412     14414     14415
     14413     14412     14414     14416     14413     14412     14414     14417
     14414     14417     14420     14421     14414     14417     14420     14422
     14414     14417     14420     14423     14415     14414     14417     14418
     14415     14414     14417     14419     14415     14414     14417     14420
     14416     14414     14417     14418     14416     14414     14417     14419
     14416     14414     14417     14420     14417     14420     14423     14424
     14417     14420     14423     14425     14417     14420     14423     14426
     14418     14417     14420     14421     14418     14417     14420     14422
     14418     14417     14420     14423     14419     14417     14420     14421
     14419     14417     14420     14422     14419     14417     14420     14423
     14420     14423     14426     14427     14420     14423     14426     14428
     14420     14423     14426     14429     14421     14420     14423     14424
     14421     14420     14423     14425     14421     14420     14423     14426
     14422     14420     14423     14424     14422     14420     14423     14425
     14422     14420     14423     14426     14423     14426     14429     14430
     14423     14426     14429     14431     14423     14426     14429     14432
     14424     14423     14426     14427     14424     14423     14426     14428
     14424     14423     14426     14429     14425     14423     14426     14427
     14425     14423     14426     14428     14425     14423     14426     14429
     14426     14429     14432     14433     14426     14429     14432     14434
     14426     14429     14432     14435     14427     14426     14429     14430
     14427     14426     14429     14431     14427     14426     14429     14432
     14428     14426     14429     14430     14428     14426     14429     14431
     14428     14426     14429     14432     14429     14432     14435     14436
     14429     14432     14435     14437     14429     14432     14435     14438
     14430     14429     14432     14433     14430     14429     14432     14434
     14430     14429     14432     14435     14431     14429     14432     14433
     14431     14429     14432     14434     14431     14429     14432     14435
     14433     14432     14435     14436     14433     14432     14435     14437
     14433     14432     14435     14438     14434     14432     14435     14436
     14434     14432     14435     14437     14434     14432     14435     14438
     14439     14440     14455     14456     14439     14440     14455     14457
     14439     14440     14455     14461     14440     14439     14443     14444
     14440     14439     14443     14445     14440     14439     14443     14446
     14440     14439     14447     14448     14440     14439     14447     14449
     14440     14439     14447     14450     14440     14439     14451     14452
     14440     14439     14451     14453     14440     14439     14451     14454
     14440     14455     14461     14458     14441     14440     14439     14443
     14441     14440     14439     14447     14441     14440     14439     14451
     14441     14440     14455     14456     14441     14440     14455     14457
     14441     14440     14455     14461     14442     14440     14439     14443
     14442     14440     14439     14447     14442     14440     14439     14451
     14442     14440     14455     14456     14442     14440     14455     14457
     14442     14440     14455     14461     14443     14439     14440     14455
     14443     14439     14447     14448     14443     14439     14447     14449
     14443     14439     14447     14450     14443     14439     14451     14452
     14443     14439     14451     14453     14443     14439     14451     14454
     14444     14443     14439     14447     14444     14443     14439     14451
     14445     14443     14439     14447     14445     14443     14439     14451
     14446     14443     14439     14447     14446     14443     14439     14451
     14447     14439     14440     14455     14447     14439     14451     14452
     14447     14439     14451     14453     14447     14439     14451     14454
     14448     14447     14439     14451     14449     14447     14439     14451
     14450     14447     14439     14451     14451     14439     14440     14455
     14455     14461     14458     14459     14455     14461     14458     14460
     14455     14461     14458     14462     14456     14455     14461     14458
     14457     14455     14461     14458     14458     14462     14463     14464
     14458     14462     14463     14465     14458     14462     14463     14466
     14459     14458     14462     14463     14460     14458     14462     14463
     14461     14458     14462     14463     14462     14463     14466     14467
     14462     14463     14466     14468     14462     14463     14466     14474
     14463     14466     14468     14469     14463     14466     14474     14475
     14463     14466     14474     14476     14463     14466     14474     14477
     14464     14463     14466     14467     14464     14463     14466     14468
     14464     14463     14466     14474     14465     14463     14466     14467
     14465     14463     14466     14468     14465     14463     14466     14474
     14466     14468     14469     14470     14466     14468     14469     14471
     14466     14474     14477     14478     14467     14466     14468     14469
     14467     14466     14474     14475     14467     14466     14474     14476
     14467     14466     14474     14477     14468     14466     14474     14475
     14468     14466     14474     14476     14468     14466     14474     14477
     14468     14469     14471     14472     14468     14469     14471     14473
     14468     14469     14471     14483     14469     14468     14466     14474
     14469     14471     14483     14484     14469     14471     14483     14485
     14469     14471     14483     14486     14470     14469     14471     14472
     14470     14469     14471     14473     14470     14469     14471     14483
     14471     14483     14486     14487     14471     14483     14486     14488
     14471     14483     14486     14489     14472     14471     14483     14484
     14472     14471     14483     14485     14472     14471     14483     14486
     14473     14471     14483     14484     14473     14471     14483     14485
     14473     14471     14483     14486     14474     14477     14478     14479
     14474     14477     14478     14480     14475     14474     14477     14478
     14476     14474     14477     14478     14477     14478     14480     14481
     14477     14478     14480     14482     14477     14478     14480     14530
     14478     14480     14530     14531     14478     14480     14530     14532
     14478     14480     14530     14533     14479     14478     14480     14481
     14479     14478     14480     14482     14479     14478     14480     14530
     14480     14530     14533     14534     14480     14530     14533     14535
     14480     14530     14533     14536     14481     14480     14530     14531
     14481     14480     14530     14532     14481     14480     14530     14533
     14482     14480     14530     14531     14482     14480     14530     14532
     14482     14480     14530     14533     14483     14486     14489     14490
     14483     14486     14489     14491     14484     14483     14486     14487
     14484     14483     14486     14488     14484     14483     14486     14489
     14485     14483     14486     14487     14485     14483     14486     14488
     14485     14483     14486     14489     14486     14489     14491     14492
     14486     14489     14491     14493     14487     14486     14489     14490
     14487     14486     14489     14491     14488     14486     14489     14490
     14488     14486     14489     14491     14489     14491     14493     14494
     14489     14491     14493     14495     14489     14491     14493     14496
     14490     14489     14491     14492     14490     14489     14491     14493
     14491     14493     14496     14497     14491     14493     14496     14498
     14492     14491     14493     14494     14492     14491     14493     14495
     14492     14491     14493     14496     14493     14496     14498     14499
     14493     14496     14498     14500     14494     14493     14496     14497
     14494     14493     14496     14498     14495     14493     14496     14497
     14495     14493     14496     14498     14496     14498     14500     14501
     14496     14498     14500     14502     14496     14498     14500     14503
     14497     14496     14498     14499     14497     14496     14498     14500
     14498     14500     14503     14504     14498     14500     14503     14505
     14499     14498     14500     14501     14499     14498     14500     14502
     14499     14498     14500     14503     14500     14503     14505     14506
     14500     14503     14505     14507     14501     14500     14503     14504
     14501     14500     14503     14505     14502     14500     14503     14504
     14502     14500     14503     14505     14503     14505     14507     14508
     14503     14505     14507     14509     14503     14505     14507     14510
     14504     14503     14505     14506     14504     14503     14505     14507
     14505     14507     14510     14511     14505     14507     14510     14512
     14506     14505     14507     14508     14506     14505     14507     14509
     14506     14505     14507     14510     14507     14510     14512     14513
     14507     14510     14512     14514     14508     14507     14510     14511
     14508     14507     14510     14512     14509     14507     14510     14511
     14509     14507     14510     14512     14510     14512     14514     14515
     14510     14512     14514     14516     14510     14512     14514     14517
     14511     14510     14512     14513     14511     14510     14512     14514
     14512     14514     14517     14518     14512     14514     14517     14519
     14512     14514     14517     14520     14513     14512     14514     14515
     14513     14512     14514     14516     14513     14512     14514     14517
     14514     14517     14520     14521     14514     14517     14520     14522
     14514     14517     14520     14523     14515     14514     14517     14518
     14515     14514     14517     14519     14515     14514     14517     14520
     14516     14514     14517     14518     14516     14514     14517     14519
     14516     14514     14517     14520     14517     14520     14523     14524
     14517     14520     14523     14525     14517     14520     14523     14526
     14518     14517     14520     14521     14518     14517     14520     14522
     14518     14517     14520     14523     14519     14517     14520     14521
     14519     14517     14520     14522     14519     14517     14520     14523
     14520     14523     14526     14527     14520     14523     14526     14528
     14520     14523     14526     14529     14521     14520     14523     14524
     14521     14520     14523     14525     14521     14520     14523     14526
     14522     14520     14523     14524     14522     14520     14523     14525
     14522     14520     14523     14526     14524     14523     14526     14527
     14524     14523     14526     14528     14524     14523     14526     14529
     14525     14523     14526     14527     14525     14523     14526     14528
     14525     14523     14526     14529     14530     14533     14536     14537
     14530     14533     14536     14538     14530     14533     14536     14539
     14531     14530     14533     14534     14531     14530     14533     14535
     14531     14530     14533     14536     14532     14530     14533     14534
     14532     14530     14533     14535     14532     14530     14533     14536
     14533     14536     14539     14540     14533     14536     14539     14541
     14533     14536     14539     14542     14534     14533     14536     14537
     14534     14533     14536     14538     14534     14533     14536     14539
     14535     14533     14536     14537     14535     14533     14536     14538
     14535     14533     14536     14539     14536     14539     14542     14543
     14536     14539     14542     14544     14536     14539     14542     14545
     14537     14536     14539     14540     14537     14536     14539     14541
     14537     14536     14539     14542     14538     14536     14539     14540
     14538     14536     14539     14541     14538     14536     14539     14542
     14539     14542     14545     14546     14539     14542     14545     14547
     14539     14542     14545     14548     14540     14539     14542     14543
     14540     14539     14542     14544     14540     14539     14542     14545
     14541     14539     14542     14543     14541     14539     14542     14544
     14541     14539     14542     14545     14542     14545     14548     14549
     14542     14545     14548     14550     14542     14545     14548     14551
     14543     14542     14545     14546     14543     14542     14545     14547
     14543     14542     14545     14548     14544     14542     14545     14546
     14544     14542     14545     14547     14544     14542     14545     14548
     14545     14548     14551     14552     14545     14548     14551     14553
     14545     14548     14551     14554     14546     14545     14548     14549
     14546     14545     14548     14550     14546     14545     14548     14551
     14547     14545     14548     14549     14547     14545     14548     14550
     14547     14545     14548     14551     14548     14551     14554     14555
     14548     14551     14554     14556     14548     14551     14554     14557
     14549     14548     14551     14552     14549     14548     14551     14553
     14549     14548     14551     14554     14550     14548     14551     14552
     14550     14548     14551     14553     14550     14548     14551     14554
     14551     14554     14557     14558     14551     14554     14557     14559
     14551     14554     14557     14560     14552     14551     14554     14555
     14552     14551     14554     14556     14552     14551     14554     14557
     14553     14551     14554     14555     14553     14551     14554     14556
     14553     14551     14554     14557     14554     14557     14560     14561
     14554     14557     14560     14562     14554     14557     14560     14563
     14555     14554     14557     14558     14555     14554     14557     14559
     14555     14554     14557     14560     14556     14554     14557     14558
     14556     14554     14557     14559     14556     14554     14557     14560
     14557     14560     14563     14564     14557     14560     14563     14565
     14557     14560     14563     14566     14558     14557     14560     14561
     14558     14557     14560     14562     14558     14557     14560     14563
     14559     14557     14560     14561     14559     14557     14560     14562
     14559     14557     14560     14563     14560     14563     14566     14567
     14560     14563     14566     14568     14560     14563     14566     14569
     14561     14560     14563     14564     14561     14560     14563     14565
     14561     14560     14563     14566     14562     14560     14563     14564
     14562     14560     14563     14565     14562     14560     14563     14566
     14563     14566     14569     14570     14563     14566     14569     14571
     14563     14566     14569     14572     14564     14563     14566     14567
     14564     14563     14566     14568     14564     14563     14566     14569
     14565     14563     14566     14567     14565     14563     14566     14568
     14565     14563     14566     14569     14566     14569     14572     14573
     14566     14569     14572     14574     14566     14569     14572     14575
     14567     14566     14569     14570     14567     14566     14569     14571
     14567     14566     14569     14572     14568     14566     14569     14570
     14568     14566     14569     14571     14568     14566     14569     14572
     14569     14572     14575     14576     14569     14572     14575     14577
     14569     14572     14575     14578     14570     14569     14572     14573
     14570     14569     14572     14574     14570     14569     14572     14575
     14571     14569     14572     14573     14571     14569     14572     14574
     14571     14569     14572     14575     14573     14572     14575     14576
     14573     14572     14575     14577     14573     14572     14575     14578
     14574     14572     14575     14576     14574     14572     14575     14577
     14574     14572     14575     14578     14579     14583     14586     14587
     14579     14583     14586     14617     14579     14625     14622     14617
     14579     14625     14622     14623     14579     14625     14622     14624
     14580     14579     14581     14582     14580     14579     14583     14584
     14580     14579     14583     14585     14580     14579     14583     14586
     14580     14579     14625     14622     14580     14579     14625     14626
     14580     14579     14625     14627     14581     14579     14583     14584
     14581     14579     14583     14585     14581     14579     14583     14586
     14581     14579     14625     14622     14581     14579     14625     14626
     14581     14579     14625     14627     14582     14581     14579     14583
     14582     14581     14579     14625     14583     14579     14625     14622
     14583     14579     14625     14626     14583     14579     14625     14627
     14583     14586     14587     14588     14583     14586     14587     14589
     14583     14586     14617     14615     14583     14586     14617     14618
     14583     14586     14617     14622     14584     14583     14579     14625
     14584     14583     14586     14587     14584     14583     14586     14617
     14585     14583     14579     14625     14585     14583     14586     14587
     14585     14583     14586     14617     14586     14583     14579     14625
     14586     14587     14589     14590     14586     14587     14589     14591
     14586     14587     14589     14592     14586     14617     14615     14592
     14586     14617     14615     14612     14586     14617     14615     14616
     14586     14617     14618     14619     14586     14617     14618     14620
     14586     14617     14618     14621     14586     14617     14622     14623
     14586     14617     14622     14624     14586     14617     14622     14625
     14587     14586     14617     14615     14587     14586     14617     14618
     14587     14586     14617     14622     14587     14589     14592     14593
     14587     14589     14592     14594     14587     14589     14592     14615
     14588     14587     14586     14617     14588     14587     14589     14590
     14588     14587     14589     14591     14588     14587     14589     14592
     14589     14587     14586     14617     14589     14592     14594     14595
     14589     14592     14594     14596     14589     14592     14594     14604
     14589     14592     14615     14612     14589     14592     14615     14616
     14589     14592     14615     14617     14590     14589     14592     14593
     14590     14589     14592     14594     14590     14589     14592     14615
     14591     14589     14592     14593     14591     14589     14592     14594
     14591     14589     14592     14615     14592     14594     14596     14597
     14592     14594     14596     14598     14592     14594     14596     14599
     14592     14594     14604     14602     14592     14594     14604     14605
     14592     14594     14604     14609     14592     14615     14612     14609
     14592     14615     14612     14613     14592     14615     14612     14614
     14592     14615     14617     14618     14592     14615     14617     14622
     14593     14592     14594     14595     14593     14592     14594     14596
     14593     14592     14594     14604     14593     14592     14615     14612
     14593     14592     14615     14616     14593     14592     14615     14617
     14594     14592     14615     14612     14594     14592     14615     14616
     14594     14592     14615     14617     14594     14596     14599     14600
     14594     14596     14599     14601     14594     14596     14599     14602
     14594     14604     14602     14599     14594     14604     14602     14603
     14594     14604     14602     14628     14594     14604     14605     14606
     14594     14604     14605     14607     14594     14604     14605     14608
     14594     14604     14609     14610     14594     14604     14609     14611
     14594     14604     14609     14612     14595     14594     14592     14615
     14595     14594     14596     14597     14595     14594     14596     14598
     14595     14594     14596     14599     14595     14594     14604     14602
     14595     14594     14604     14605     14595     14594     14604     14609
     14596     14594     14592     14615     14596     14594     14604     14602
     14596     14594     14604     14605     14596     14594     14604     14609
     14596     14599     14602     14603     14596     14599     14602     14604
     14596     14599     14602     14628     14597     14596     14594     14604
     14597     14596     14599     14600     14597     14596     14599     14601
     14597     14596     14599     14602     14598     14596     14594     14604
     14598     14596     14599     14600     14598     14596     14599     14601
     14598     14596     14599     14602     14599     14596     14594     14604
     14599     14602     14604     14605     14599     14602     14604     14609
     14599     14602     14628     14629     14599     14602     14628     14630
     14599     14602     14628     14634     14600     14599     14602     14603
     14600     14599     14602     14604     14600     14599     14602     14628
     14601     14599     14602     14603     14601     14599     14602     14604
     14601     14599     14602     14628     14602     14604     14605     14606
     14602     14604     14605     14607     14602     14604     14605     14608
     14602     14604     14609     14610     14602     14604     14609     14611
     14602     14604     14609     14612     14602     14628     14630     14631
     14602     14628     14630     14632     14602     14628     14630     14633
     14602     14628     14634     14635     14602     14628     14634     14636
     14602     14628     14634     14637     14603     14602     14604     14605
     14603     14602     14604     14609     14603     14602     14628     14629
     14603     14602     14628     14630     14603     14602     14628     14634
     14604     14594     14592     14615     14604     14602     14628     14629
     14604     14602     14628     14630     14604     14602     14628     14634
     14604     14609     14612     14613     14604     14609     14612     14614
     14604     14609     14612     14615     14605     14604     14602     14628
     14605     14604     14609     14610     14605     14604     14609     14611
     14605     14604     14609     14612     14606     14605     14604     14609
     14607     14605     14604     14609     14608     14605     14604     14609
     14609     14604     14602     14628     14609     14612     14615     14616
     14609     14612     14615     14617     14610     14609     14612     14613
     14610     14609     14612     14614     14610     14609     14612     14615
     14611     14609     14612     14613     14611     14609     14612     14614
     14611     14609     14612     14615     14612     14615     14617     14618
     14612     14615     14617     14622     14613     14612     14615     14616
     14613     14612     14615     14617     14614     14612     14615     14616
     14614     14612     14615     14617     14615     14617     14618     14619
     14615     14617     14618     14620     14615     14617     14618     14621
     14615     14617     14622     14623     14615     14617     14622     14624
     14615     14617     14622     14625     14616     14615     14617     14618
     14616     14615     14617     14622     14617     14622     14625     14626
     14617     14622     14625     14627     14618     14617     14622     14623
     14618     14617     14622     14624     14618     14617     14622     14625
     14619     14618     14617     14622     14620     14618     14617     14622
     14621     14618     14617     14622     14623     14622     14625     14626
     14623     14622     14625     14627     14624     14622     14625     14626
     14624     14622     14625     14627     14628     14634     14637     14638
     14628     14634     14637     14639     14628     14634     14637     14640
     14629     14628     14630     14631     14629     14628     14630     14632
     14629     14628     14630     14633     14629     14628     14634     14635
     14629     14628     14634     14636     14629     14628     14634     14637
     14630     14628     14634     14635     14630     14628     14634     14636
     14630     14628     14634     14637     14631     14630     14628     14634
     14632     14630     14628     14634     14633     14630     14628     14634
     14634     14637     14640     14641     14634     14637     14640     14642
     14634     14637     14640     14643     14635     14634     14637     14638
     14635     14634     14637     14639     14635     14634     14637     14640
     14636     14634     14637     14638     14636     14634     14637     14639
     14636     14634     14637     14640     14637     14640     14643     14644
     14637     14640     14643     14645     14637     14640     14643     14649
     14638     14637     14640     14641     14638     14637     14640     14642
     14638     14637     14640     14643     14639     14637     14640     14641
     14639     14637     14640     14642     14639     14637     14640     14643
     14640     14643     14645     14646     14640     14643     14645     14647
     14640     14643     14645     14648     14640     14643     14649     14650
     14640     14643     14649     14651     14640     14643     14649     14652
     14641     14640     14643     14644     14641     14640     14643     14645
     14641     14640     14643     14649     14642     14640     14643     14644
     14642     14640     14643     14645     14642     14640     14643     14649
     14644     14643     14645     14646     14644     14643     14645     14647
     14644     14643     14645     14648     14644     14643     14649     14650
     14644     14643     14649     14651     14644     14643     14649     14652
     14645     14643     14649     14650     14645     14643     14649     14651
     14645     14643     14649     14652     14646     14645     14643     14649
     14647     14645     14643     14649     14648     14645     14643     14649
     14653     14657     14659     14660     14653     14657     14659     14661
     14653     14657     14662     14663     14653     14657     14662     14664
     14653     14657     14662     14668     14654     14653     14657     14658
     14654     14653     14657     14659     14654     14653     14657     14662
     14655     14653     14657     14658     14655     14653     14657     14659
     14655     14653     14657     14662     14656     14653     14657     14658
     14656     14653     14657     14659     14656     14653     14657     14662
     14657     14662     14668     14665     14658     14657     14659     14660
     14658     14657     14659     14661     14658     14657     14662     14663
     14658     14657     14662     14664     14658     14657     14662     14668
     14659     14657     14662     14663     14659     14657     14662     14664
     14659     14657     14662     14668     14660     14659     14657     14662
     14661     14659     14657     14662     14662     14668     14665     14666
     14662     14668     14665     14667     14662     14668     14665     14669
     14663     14662     14668     14665     14664     14662     14668     14665
     14665     14669     14670     14671     14665     14669     14670     14672
     14665     14669     14670     14673     14666     14665     14669     14670
     14667     14665     14669     14670     14668     14665     14669     14670
     14669     14670     14673     14674     14669     14670     14673     14675
     14669     14670     14673     14681     14670     14673     14675     14676
     14670     14673     14681     14682     14670     14673     14681     14683
     14670     14673     14681     14684     14671     14670     14673     14674
     14671     14670     14673     14675     14671     14670     14673     14681
     14672     14670     14673     14674     14672     14670     14673     14675
     14672     14670     14673     14681     14673     14675     14676     14677
     14673     14675     14676     14678     14673     14681     14684     14685
     14674     14673     14675     14676     14674     14673     14681     14682
     14674     14673     14681     14683     14674     14673     14681     14684
     14675     14673     14681     14682     14675     14673     14681     14683
     14675     14673     14681     14684     14675     14676     14678     14679
     14675     14676     14678     14680     14675     14676     14678     14690
     14676     14675     14673     14681     14676     14678     14690     14691
     14676     14678     14690     14692     14676     14678     14690     14693
     14677     14676     14678     14679     14677     14676     14678     14680
     14677     14676     14678     14690     14678     14690     14693     14694
     14678     14690     14693     14695     14678     14690     14693     14696
     14679     14678     14690     14691     14679     14678     14690     14692
     14679     14678     14690     14693     14680     14678     14690     14691
     14680     14678     14690     14692     14680     14678     14690     14693
     14681     14684     14685     14686     14681     14684     14685     14687
     14682     14681     14684     14685     14683     14681     14684     14685
     14684     14685     14687     14688     14684     14685     14687     14689
     14684     14685     14687     14737     14685     14687     14737     14738
     14685     14687     14737     14739     14685     14687     14737     14740
     14686     14685     14687     14688     14686     14685     14687     14689
     14686     14685     14687     14737     14687     14737     14740     14741
     14687     14737     14740     14742     14687     14737     14740     14743
     14688     14687     14737     14738     14688     14687     14737     14739
     14688     14687     14737     14740     14689     14687     14737     14738
     14689     14687     14737     14739     14689     14687     14737     14740
     14690     14693     14696     14697     14690     14693     14696     14698
     14691     14690     14693     14694     14691     14690     14693     14695
     14691     14690     14693     14696     14692     14690     14693     14694
     14692     14690     14693     14695     14692     14690     14693     14696
     14693     14696     14698     14699     14693     14696     14698     14700
     14694     14693     14696     14697     14694     14693     14696     14698
     14695     14693     14696     14697     14695     14693     14696     14698
     14696     14698     14700     14701     14696     14698     14700     14702
     14696     14698     14700     14703     14697     14696     14698     14699
     14697     14696     14698     14700     14698     14700     14703     14704
     14698     14700     14703     14705     14699     14698     14700     14701
     14699     14698     14700     14702     14699     14698     14700     14703
     14700     14703     14705     14706     14700     14703     14705     14707
     14701     14700     14703     14704     14701     14700     14703     14705
     14702     14700     14703     14704     14702     14700     14703     14705
     14703     14705     14707     14708     14703     14705     14707     14709
     14703     14705     14707     14710     14704     14703     14705     14706
     14704     14703     14705     14707     14705     14707     14710     14711
     14705     14707     14710     14712     14706     14705     14707     14708
     14706     14705     14707     14709     14706     14705     14707     14710
     14707     14710     14712     14713     14707     14710     14712     14714
     14708     14707     14710     14711     14708     14707     14710     14712
     14709     14707     14710     14711     14709     14707     14710     14712
     14710     14712     14714     14715     14710     14712     14714     14716
     14710     14712     14714     14717     14711     14710     14712     14713
     14711     14710     14712     14714     14712     14714     14717     14718
     14712     14714     14717     14719     14713     14712     14714     14715
     14713     14712     14714     14716     14713     14712     14714     14717
     14714     14717     14719     14720     14714     14717     14719     14721
     14715     14714     14717     14718     14715     14714     14717     14719
     14716     14714     14717     14718     14716     14714     14717     14719
     14717     14719     14721     14722     14717     14719     14721     14723
     14717     14719     14721     14724     14718     14717     14719     14720
     14718     14717     14719     14721     14719     14721     14724     14725
     14719     14721     14724     14726     14719     14721     14724     14727
     14720     14719     14721     14722     14720     14719     14721     14723
     14720     14719     14721     14724     14721     14724     14727     14728
     14721     14724     14727     14729     14721     14724     14727     14730
     14722     14721     14724     14725     14722     14721     14724     14726
     14722     14721     14724     14727     14723     14721     14724     14725
     14723     14721     14724     14726     14723     14721     14724     14727
     14724     14727     14730     14731     14724     14727     14730     14732
     14724     14727     14730     14733     14725     14724     14727     14728
     14725     14724     14727     14729     14725     14724     14727     14730
     14726     14724     14727     14728     14726     14724     14727     14729
     14726     14724     14727     14730     14727     14730     14733     14734
     14727     14730     14733     14735     14727     14730     14733     14736
     14728     14727     14730     14731     14728     14727     14730     14732
     14728     14727     14730     14733     14729     14727     14730     14731
     14729     14727     14730     14732     14729     14727     14730     14733
     14731     14730     14733     14734     14731     14730     14733     14735
     14731     14730     14733     14736     14732     14730     14733     14734
     14732     14730     14733     14735     14732     14730     14733     14736
     14737     14740     14743     14744     14737     14740     14743     14745
     14737     14740     14743     14746     14738     14737     14740     14741
     14738     14737     14740     14742     14738     14737     14740     14743
     14739     14737     14740     14741     14739     14737     14740     14742
     14739     14737     14740     14743     14740     14743     14746     14747
     14740     14743     14746     14748     14740     14743     14746     14749
     14741     14740     14743     14744     14741     14740     14743     14745
     14741     14740     14743     14746     14742     14740     14743     14744
     14742     14740     14743     14745     14742     14740     14743     14746
     14743     14746     14749     14750     14743     14746     14749     14751
     14743     14746     14749     14752     14744     14743     14746     14747
     14744     14743     14746     14748     14744     14743     14746     14749
     14745     14743     14746     14747     14745     14743     14746     14748
     14745     14743     14746     14749     14746     14749     14752     14753
     14746     14749     14752     14754     14746     14749     14752     14755
     14747     14746     14749     14750     14747     14746     14749     14751
     14747     14746     14749     14752     14748     14746     14749     14750
     14748     14746     14749     14751     14748     14746     14749     14752
     14749     14752     14755     14756     14749     14752     14755     14757
     14749     14752     14755     14758     14750     14749     14752     14753
     14750     14749     14752     14754     14750     14749     14752     14755
     14751     14749     14752     14753     14751     14749     14752     14754
     14751     14749     14752     14755     14752     14755     14758     14759
     14752     14755     14758     14760     14752     14755     14758     14761
     14753     14752     14755     14756     14753     14752     14755     14757
     14753     14752     14755     14758     14754     14752     14755     14756
     14754     14752     14755     14757     14754     14752     14755     14758
     14755     14758     14761     14762     14755     14758     14761     14763
     14755     14758     14761     14764     14756     14755     14758     14759
     14756     14755     14758     14760     14756     14755     14758     14761
     14757     14755     14758     14759     14757     14755     14758     14760
     14757     14755     14758     14761     14758     14761     14764     14765
     14758     14761     14764     14766     14758     14761     14764     14767
     14759     14758     14761     14762     14759     14758     14761     14763
     14759     14758     14761     14764     14760     14758     14761     14762
     14760     14758     14761     14763     14760     14758     14761     14764
     14761     14764     14767     14768     14761     14764     14767     14769
     14761     14764     14767     14770     14762     14761     14764     14765
     14762     14761     14764     14766     14762     14761     14764     14767
     14763     14761     14764     14765     14763     14761     14764     14766
     14763     14761     14764     14767     14764     14767     14770     14771
     14764     14767     14770     14772     14764     14767     14770     14773
     14765     14764     14767     14768     14765     14764     14767     14769
     14765     14764     14767     14770     14766     14764     14767     14768
     14766     14764     14767     14769     14766     14764     14767     14770
     14767     14770     14773     14774     14767     14770     14773     14775
     14767     14770     14773     14776     14768     14767     14770     14771
     14768     14767     14770     14772     14768     14767     14770     14773
     14769     14767     14770     14771     14769     14767     14770     14772
     14769     14767     14770     14773     14770     14773     14776     14777
     14770     14773     14776     14778     14770     14773     14776     14779
     14771     14770     14773     14774     14771     14770     14773     14775
     14771     14770     14773     14776     14772     14770     14773     14774
     14772     14770     14773     14775     14772     14770     14773     14776
     14773     14776     14779     14780     14773     14776     14779     14781
     14773     14776     14779     14782     14774     14773     14776     14777
     14774     14773     14776     14778     14774     14773     14776     14779
     14775     14773     14776     14777     14775     14773     14776     14778
     14775     14773     14776     14779     14776     14779     14782     14783
     14776     14779     14782     14784     14776     14779     14782     14785
     14777     14776     14779     14780     14777     14776     14779     14781
     14777     14776     14779     14782     14778     14776     14779     14780
     14778     14776     14779     14781     14778     14776     14779     14782
     14780     14779     14782     14783     14780     14779     14782     14784
     14780     14779     14782     14785     14781     14779     14782     14783
     14781     14779     14782     14784     14781     14779     14782     14785
     14786     14790     14793     14794     14786     14790     14793     14824
     14786     14832     14829     14824     14786     14832     14829     14830
     14786     14832     14829     14831     14787     14786     14788     14789
     14787     14786     14790     14791     14787     14786     14790     14792
     14787     14786     14790     14793     14787     14786     14832     14829
     14787     14786     14832     14833     14787     14786     14832     14834
     14788     14786     14790     14791     14788     14786     14790     14792
     14788     14786     14790     14793     14788     14786     14832     14829
     14788     14786     14832     14833     14788     14786     14832     14834
     14789     14788     14786     14790     14789     14788     14786     14832
     14790     14786     14832     14829     14790     14786     14832     14833
     14790     14786     14832     14834     14790     14793     14794     14795
     14790     14793     14794     14796     14790     14793     14824     14822
     14790     14793     14824     14825     14790     14793     14824     14829
     14791     14790     14786     14832     14791     14790     14793     14794
     14791     14790     14793     14824     14792     14790     14786     14832
     14792     14790     14793     14794     14792     14790     14793     14824
     14793     14790     14786     14832     14793     14794     14796     14797
     14793     14794     14796     14798     14793     14794     14796     14799
     14793     14824     14822     14799     14793     14824     14822     14819
     14793     14824     14822     14823     14793     14824     14825     14826
     14793     14824     14825     14827     14793     14824     14825     14828
     14793     14824     14829     14830     14793     14824     14829     14831
     14793     14824     14829     14832     14794     14793     14824     14822
     14794     14793     14824     14825     14794     14793     14824     14829
     14794     14796     14799     14800     14794     14796     14799     14801
     14794     14796     14799     14822     14795     14794     14793     14824
     14795     14794     14796     14797     14795     14794     14796     14798
     14795     14794     14796     14799     14796     14794     14793     14824
     14796     14799     14801     14802     14796     14799     14801     14803
     14796     14799     14801     14811     14796     14799     14822     14819
     14796     14799     14822     14823     14796     14799     14822     14824
     14797     14796     14799     14800     14797     14796     14799     14801
     14797     14796     14799     14822     14798     14796     14799     14800
     14798     14796     14799     14801     14798     14796     14799     14822
     14799     14801     14803     14804     14799     14801     14803     14805
     14799     14801     14803     14806     14799     14801     14811     14809
     14799     14801     14811     14812     14799     14801     14811     14816
     14799     14822     14819     14816     14799     14822     14819     14820
     14799     14822     14819     14821     14799     14822     14824     14825
     14799     14822     14824     14829     14800     14799     14801     14802
     14800     14799     14801     14803     14800     14799     14801     14811
     14800     14799     14822     14819     14800     14799     14822     14823
     14800     14799     14822     14824     14801     14799     14822     14819
     14801     14799     14822     14823     14801     14799     14822     14824
     14801     14803     14806     14807     14801     14803     14806     14808
     14801     14803     14806     14809     14801     14811     14809     14806
     14801     14811     14809     14810     14801     14811     14809     14835
     14801     14811     14812     14813     14801     14811     14812     14814
     14801     14811     14812     14815     14801     14811     14816     14817
     14801     14811     14816     14818     14801     14811     14816     14819
     14802     14801     14799     14822     14802     14801     14803     14804
     14802     14801     14803     14805     14802     14801     14803     14806
     14802     14801     14811     14809     14802     14801     14811     14812
     14802     14801     14811     14816     14803     14801     14799     14822
     14803     14801     14811     14809     14803     14801     14811     14812
     14803     14801     14811     14816     14803     14806     14809     14810
     14803     14806     14809     14811     14803     14806     14809     14835
     14804     14803     14801     14811     14804     14803     14806     14807
     14804     14803     14806     14808     14804     14803     14806     14809
     14805     14803     14801     14811     14805     14803     14806     14807
     14805     14803     14806     14808     14805     14803     14806     14809
     14806     14803     14801     14811     14806     14809     14811     14812
     14806     14809     14811     14816     14806     14809     14835     14836
     14806     14809     14835     14837     14806     14809     14835     14841
     14807     14806     14809     14810     14807     14806     14809     14811
     14807     14806     14809     14835     14808     14806     14809     14810
     14808     14806     14809     14811     14808     14806     14809     14835
     14809     14811     14812     14813     14809     14811     14812     14814
     14809     14811     14812     14815     14809     14811     14816     14817
     14809     14811     14816     14818     14809     14811     14816     14819
     14809     14835     14837     14838     14809     14835     14837     14839
     14809     14835     14837     14840     14809     14835     14841     14842
     14809     14835     14841     14843     14809     14835     14841     14844
     14810     14809     14811     14812     14810     14809     14811     14816
     14810     14809     14835     14836     14810     14809     14835     14837
     14810     14809     14835     14841     14811     14801     14799     14822
     14811     14809     14835     14836     14811     14809     14835     14837
     14811     14809     14835     14841     14811     14816     14819     14820
     14811     14816     14819     14821     14811     14816     14819     14822
     14812     14811     14809     14835     14812     14811     14816     14817
     14812     14811     14816     14818     14812     14811     14816     14819
     14813     14812     14811     14816     14814     14812     14811     14816
     14815     14812     14811     14816     14816     14811     14809     14835
     14816     14819     14822     14823     14816     14819     14822     14824
     14817     14816     14819     14820     14817     14816     14819     14821
     14817     14816     14819     14822     14818     14816     14819     14820
     14818     14816     14819     14821     14818     14816     14819     14822
     14819     14822     14824     14825     14819     14822     14824     14829
     14820     14819     14822     14823     14820     14819     14822     14824
     14821     14819     14822     14823     14821     14819     14822     14824
     14822     14824     14825     14826     14822     14824     14825     14827
     14822     14824     14825     14828     14822     14824     14829     14830
     14822     14824     14829     14831     14822     14824     14829     14832
     14823     14822     14824     14825     14823     14822     14824     14829
     14824     14829     14832     14833     14824     14829     14832     14834
     14825     14824     14829     14830     14825     14824     14829     14831
     14825     14824     14829     14832     14826     14825     14824     14829
     14827     14825     14824     14829     14828     14825     14824     14829
     14830     14829     14832     14833     14830     14829     14832     14834
     14831     14829     14832     14833     14831     14829     14832     14834
     14835     14841     14844     14845     14835     14841     14844     14846
     14835     14841     14844     14847     14836     14835     14837     14838
     14836     14835     14837     14839     14836     14835     14837     14840
     14836     14835     14841     14842     14836     14835     14841     14843
     14836     14835     14841     14844     14837     14835     14841     14842
     14837     14835     14841     14843     14837     14835     14841     14844
     14838     14837     14835     14841     14839     14837     14835     14841
     14840     14837     14835     14841     14841     14844     14847     14848
     14841     14844     14847     14849     14841     14844     14847     14850
     14842     14841     14844     14845     14842     14841     14844     14846
     14842     14841     14844     14847     14843     14841     14844     14845
     14843     14841     14844     14846     14843     14841     14844     14847
     14844     14847     14850     14851     14844     14847     14850     14852
     14844     14847     14850     14856     14845     14844     14847     14848
     14845     14844     14847     14849     14845     14844     14847     14850
     14846     14844     14847     14848     14846     14844     14847     14849
     14846     14844     14847     14850     14847     14850     14852     14853
     14847     14850     14852     14854     14847     14850     14852     14855
     14847     14850     14856     14857     14847     14850     14856     14858
     14847     14850     14856     14859     14848     14847     14850     14851
     14848     14847     14850     14852     14848     14847     14850     14856
     14849     14847     14850     14851     14849     14847     14850     14852
     14849     14847     14850     14856     14851     14850     14852     14853
     14851     14850     14852     14854     14851     14850     14852     14855
     14851     14850     14856     14857     14851     14850     14856     14858
     14851     14850     14856     14859     14852     14850     14856     14857
     14852     14850     14856     14858     14852     14850     14856     14859
     14853     14852     14850     14856     14854     14852     14850     14856
     14855     14852     14850     14856     14860     14864     14867     14868
     14860     14864     14867     14869     14860     14864     14867     14873
     14861     14860     14864     14865     14861     14860     14864     14866
     14861     14860     14864     14867     14862     14860     14864     14865
     14862     14860     14864     14866     14862     14860     14864     14867
     14863     14860     14864     14865     14863     14860     14864     14866
     14863     14860     14864     14867     14864     14867     14873     14870
     14865     14864     14867     14868     14865     14864     14867     14869
     14865     14864     14867     14873     14866     14864     14867     14868
     14866     14864     14867     14869     14866     14864     14867     14873
     14867     14873     14870     14871     14867     14873     14870     14872
     14867     14873     14870     14874     14868     14867     14873     14870
     14869     14867     14873     14870     14870     14874     14875     14876
     14870     14874     14875     14877     14870     14874     14875     14878
     14871     14870     14874     14875     14872     14870     14874     14875
     14873     14870     14874     14875     14874     14875     14878     14879
     14874     14875     14878     14880     14874     14875     14878     14886
     14875     14878     14880     14881     14875     14878     14886     14887
     14875     14878     14886     14888     14875     14878     14886     14889
     14876     14875     14878     14879     14876     14875     14878     14880
     14876     14875     14878     14886     14877     14875     14878     14879
     14877     14875     14878     14880     14877     14875     14878     14886
     14878     14880     14881     14882     14878     14880     14881     14883
     14878     14886     14889     14890     14879     14878     14880     14881
     14879     14878     14886     14887     14879     14878     14886     14888
     14879     14878     14886     14889     14880     14878     14886     14887
     14880     14878     14886     14888     14880     14878     14886     14889
     14880     14881     14883     14884     14880     14881     14883     14885
     14880     14881     14883     14895     14881     14880     14878     14886
     14881     14883     14895     14896     14881     14883     14895     14897
     14881     14883     14895     14898     14882     14881     14883     14884
     14882     14881     14883     14885     14882     14881     14883     14895
     14883     14895     14898     14899     14883     14895     14898     14900
     14883     14895     14898     14901     14884     14883     14895     14896
     14884     14883     14895     14897     14884     14883     14895     14898
     14885     14883     14895     14896     14885     14883     14895     14897
     14885     14883     14895     14898     14886     14889     14890     14891
     14886     14889     14890     14892     14887     14886     14889     14890
     14888     14886     14889     14890     14889     14890     14892     14893
     14889     14890     14892     14894     14889     14890     14892     14942
     14890     14892     14942     14943     14890     14892     14942     14944
     14890     14892     14942     14945     14891     14890     14892     14893
     14891     14890     14892     14894     14891     14890     14892     14942
     14892     14942     14945     14946     14892     14942     14945     14947
     14892     14942     14945     14948     14893     14892     14942     14943
     14893     14892     14942     14944     14893     14892     14942     14945
     14894     14892     14942     14943     14894     14892     14942     14944
     14894     14892     14942     14945     14895     14898     14901     14902
     14895     14898     14901     14903     14895     14898     14901     14904
     14896     14895     14898     14899     14896     14895     14898     14900
     14896     14895     14898     14901     14897     14895     14898     14899
     14897     14895     14898     14900     14897     14895     14898     14901
     14898     14901     14904     14905     14898     14901     14904     14906
     14898     14901     14904     14907     14899     14898     14901     14902
     14899     14898     14901     14903     14899     14898     14901     14904
     14900     14898     14901     14902     14900     14898     14901     14903
     14900     14898     14901     14904     14901     14904     14907     14908
     14901     14904     14907     14909     14901     14904     14907     14910
     14902     14901     14904     14905     14902     14901     14904     14906
     14902     14901     14904     14907     14903     14901     14904     14905
     14903     14901     14904     14906     14903     14901     14904     14907
     14904     14907     14910     14911     14904     14907     14910     14912
     14904     14907     14910     14913     14905     14904     14907     14908
     14905     14904     14907     14909     14905     14904     14907     14910
     14906     14904     14907     14908     14906     14904     14907     14909
     14906     14904     14907     14910     14907     14910     14913     14914
     14907     14910     14913     14915     14908     14907     14910     14911
     14908     14907     14910     14912     14908     14907     14910     14913
     14909     14907     14910     14911     14909     14907     14910     14912
     14909     14907     14910     14913     14910     14913     14915     14916
     14910     14913     14915     14917     14911     14910     14913     14914
     14911     14910     14913     14915     14912     14910     14913     14914
     14912     14910     14913     14915     14913     14915     14917     14918
     14913     14915     14917     14919     14913     14915     14917     14920
     14914     14913     14915     14916     14914     14913     14915     14917
     14915     14917     14920     14921     14915     14917     14920     14922
     14915     14917     14920     14923     14916     14915     14917     14918
     14916     14915     14917     14919     14916     14915     14917     14920
     14917     14920     14923     14924     14917     14920     14923     14925
     14917     14920     14923     14926     14918     14917     14920     14921
     14918     14917     14920     14922     14918     14917     14920     14923
     14919     14917     14920     14921     14919     14917     14920     14922
     14919     14917     14920     14923     14920     14923     14926     14927
     14920     14923     14926     14928     14920     14923     14926     14929
     14921     14920     14923     14924     14921     14920     14923     14925
     14921     14920     14923     14926     14922     14920     14923     14924
     14922     14920     14923     14925     14922     14920     14923     14926
     14923     14926     14929     14930     14923     14926     14929     14931
     14923     14926     14929     14932     14924     14923     14926     14927
     14924     14923     14926     14928     14924     14923     14926     14929
     14925     14923     14926     14927     14925     14923     14926     14928
     14925     14923     14926     14929     14926     14929     14932     14933
     14926     14929     14932     14934     14926     14929     14932     14935
     14927     14926     14929     14930     14927     14926     14929     14931
     14927     14926     14929     14932     14928     14926     14929     14930
     14928     14926     14929     14931     14928     14926     14929     14932
     14929     14932     14935     14936     14929     14932     14935     14937
     14929     14932     14935     14938     14930     14929     14932     14933
     14930     14929     14932     14934     14930     14929     14932     14935
     14931     14929     14932     14933     14931     14929     14932     14934
     14931     14929     14932     14935     14932     14935     14938     14939
     14932     14935     14938     14940     14932     14935     14938     14941
     14933     14932     14935     14936     14933     14932     14935     14937
     14933     14932     14935     14938     14934     14932     14935     14936
     14934     14932     14935     14937     14934     14932     14935     14938
     14936     14935     14938     14939     14936     14935     14938     14940
     14936     14935     14938     14941     14937     14935     14938     14939
     14937     14935     14938     14940     14937     14935     14938     14941
     14942     14945     14948     14949     14942     14945     14948     14950
     14942     14945     14948     14951     14943     14942     14945     14946
     14943     14942     14945     14947     14943     14942     14945     14948
     14944     14942     14945     14946     14944     14942     14945     14947
     14944     14942     14945     14948     14945     14948     14951     14952
     14945     14948     14951     14953     14945     14948     14951     14954
     14946     14945     14948     14949     14946     14945     14948     14950
     14946     14945     14948     14951     14947     14945     14948     14949
     14947     14945     14948     14950     14947     14945     14948     14951
     14948     14951     14954     14955     14948     14951     14954     14956
     14948     14951     14954     14957     14949     14948     14951     14952
     14949     14948     14951     14953     14949     14948     14951     14954
     14950     14948     14951     14952     14950     14948     14951     14953
     14950     14948     14951     14954     14951     14954     14957     14958
     14951     14954     14957     14959     14951     14954     14957     14960
     14952     14951     14954     14955     14952     14951     14954     14956
     14952     14951     14954     14957     14953     14951     14954     14955
     14953     14951     14954     14956     14953     14951     14954     14957
     14954     14957     14960     14961     14954     14957     14960     14962
     14954     14957     14960     14963     14955     14954     14957     14958
     14955     14954     14957     14959     14955     14954     14957     14960
     14956     14954     14957     14958     14956     14954     14957     14959
     14956     14954     14957     14960     14957     14960     14963     14964
     14957     14960     14963     14965     14957     14960     14963     14966
     14958     14957     14960     14961     14958     14957     14960     14962
     14958     14957     14960     14963     14959     14957     14960     14961
     14959     14957     14960     14962     14959     14957     14960     14963
     14960     14963     14966     14967     14960     14963     14966     14968
     14960     14963     14966     14969     14961     14960     14963     14964
     14961     14960     14963     14965     14961     14960     14963     14966
     14962     14960     14963     14964     14962     14960     14963     14965
     14962     14960     14963     14966     14963     14966     14969     14970
     14963     14966     14969     14971     14963     14966     14969     14972
     14964     14963     14966     14967     14964     14963     14966     14968
     14964     14963     14966     14969     14965     14963     14966     14967
     14965     14963     14966     14968     14965     14963     14966     14969
     14966     14969     14972     14973     14966     14969     14972     14974
     14966     14969     14972     14975     14967     14966     14969     14970
     14967     14966     14969     14971     14967     14966     14969     14972
     14968     14966     14969     14970     14968     14966     14969     14971
     14968     14966     14969     14972     14969     14972     14975     14976
     14969     14972     14975     14977     14969     14972     14975     14978
     14970     14969     14972     14973     14970     14969     14972     14974
     14970     14969     14972     14975     14971     14969     14972     14973
     14971     14969     14972     14974     14971     14969     14972     14975
     14972     14975     14978     14979     14972     14975     14978     14980
     14972     14975     14978     14981     14973     14972     14975     14976
     14973     14972     14975     14977     14973     14972     14975     14978
     14974     14972     14975     14976     14974     14972     14975     14977
     14974     14972     14975     14978     14975     14978     14981     14982
     14975     14978     14981     14983     14975     14978     14981     14984
     14976     14975     14978     14979     14976     14975     14978     14980
     14976     14975     14978     14981     14977     14975     14978     14979
     14977     14975     14978     14980     14977     14975     14978     14981
     14978     14981     14984     14985     14978     14981     14984     14986
     14978     14981     14984     14987     14979     14978     14981     14982
     14979     14978     14981     14983     14979     14978     14981     14984
     14980     14978     14981     14982     14980     14978     14981     14983
     14980     14978     14981     14984     14981     14984     14987     14988
     14981     14984     14987     14989     14981     14984     14987     14990
     14982     14981     14984     14985     14982     14981     14984     14986
     14982     14981     14984     14987     14983     14981     14984     14985
     14983     14981     14984     14986     14983     14981     14984     14987
     14985     14984     14987     14988     14985     14984     14987     14989
     14985     14984     14987     14990     14986     14984     14987     14988
     14986     14984     14987     14989     14986     14984     14987     14990
     14991     15004     15007     15008     14991     15004     15007     15009
     14991     15004     15007     15014     14992     14991     14996     14997
     14992     14991     14996     14998     14992     14991     14996     14999
     14992     14991     15000     15001     14992     14991     15000     15002
     14992     14991     15000     15003     14992     14991     15004     15005
     14992     14991     15004     15006     14992     14991     15004     15007
     14993     14992     14991     14996     14993     14992     14991     15000
     14993     14992     14991     15004     14994     14992     14991     14996
     14994     14992     14991     15000     14994     14992     14991     15004
     14995     14992     14991     14996     14995     14992     14991     15000
     14995     14992     14991     15004     14996     14991     15000     15001
     14996     14991     15000     15002     14996     14991     15000     15003
     14996     14991     15004     15005     14996     14991     15004     15006
     14996     14991     15004     15007     14997     14996     14991     15000
     14997     14996     14991     15004     14998     14996     14991     15000
     14998     14996     14991     15004     14999     14996     14991     15000
     14999     14996     14991     15004     15000     14991     15004     15005
     15000     14991     15004     15006     15000     14991     15004     15007
     15001     15000     14991     15004     15002     15000     14991     15004
     15003     15000     14991     15004     15004     15007     15014     15010
     15005     15004     15007     15008     15005     15004     15007     15009
     15005     15004     15007     15014     15006     15004     15007     15008
     15006     15004     15007     15009     15006     15004     15007     15014
     15007     15014     15010     15011     15007     15014     15010     15012
     15007     15014     15010     15013     15008     15007     15014     15010
     15009     15007     15014     15010     15010     15013     15015     15016
     15010     15013     15015     15017     15010     15013     15015     15020
     15011     15010     15013     15015     15012     15010     15013     15015
     15013     15015     15020     15018     15013     15015     15020     15021
     15013     15015     15020     15022     15014     15010     15013     15015
     15015     15020     15018     15019     15015     15020     15018     15070
     15015     15020     15022     15023     15015     15020     15022     15024
     15015     15020     15022     15026     15016     15015     15020     15018
     15016     15015     15020     15021     15016     15015     15020     15022
     15017     15015     15020     15018     15017     15015     15020     15021
     15017     15015     15020     15022     15018     15020     15022     15023
     15018     15020     15022     15024     15018     15020     15022     15026
     15018     15070     15072     15073     15018     15070     15072     15074
     15018     15070     15072     15075     15019     15018     15020     15021
     15019     15018     15020     15022     15019     15018     15070     15071
     15019     15018     15070     15072     15020     15018     15070     15071
     15020     15018     15070     15072     15020     15022     15024     15025
     15020     15022     15026     15027     15020     15022     15026     15028
     15021     15020     15018     15070     15021     15020     15022     15023
     15021     15020     15022     15024     15021     15020     15022     15026
     15022     15020     15018     15070     15022     15026     15028     15029
     15022     15026     15028     15030     15023     15022     15024     15025
     15023     15022     15026     15027     15023     15022     15026     15028
     15024     15022     15026     15027     15024     15022     15026     15028
     15025     15024     15022     15026     15026     15028     15030     15031
     15026     15028     15030     15032     15026     15028     15030     15033
     15027     15026     15028     15029     15027     15026     15028     15030
     15028     15030     15033     15034     15028     15030     15033     15035
     15028     15030     15033     15036     15029     15028     15030     15031
     15029     15028     15030     15032     15029     15028     15030     15033
     15030     15033     15036     15037     15030     15033     15036     15038
     15030     15033     15036     15039     15031     15030     15033     15034
     15031     15030     15033     15035     15031     15030     15033     15036
     15032     15030     15033     15034     15032     15030     15033     15035
     15032     15030     15033     15036     15033     15036     15039     15040
     15033     15036     15039     15041     15033     15036     15039     15042
     15034     15033     15036     15037     15034     15033     15036     15038
     15034     15033     15036     15039     15035     15033     15036     15037
     15035     15033     15036     15038     15035     15033     15036     15039
     15036     15039     15042     15043     15036     15039     15042     15044
     15036     15039     15042     15045     15037     15036     15039     15040
     15037     15036     15039     15041     15037     15036     15039     15042
     15038     15036     15039     15040     15038     15036     15039     15041
     15038     15036     15039     15042     15039     15042     15045     15046
     15039     15042     15045     15047     15039     15042     15045     15048
     15040     15039     15042     15043     15040     15039     15042     15044
     15040     15039     15042     15045     15041     15039     15042     15043
     15041     15039     15042     15044     15041     15039     15042     15045
     15042     15045     15048     15049     15042     15045     15048     15050
     15042     15045     15048     15051     15043     15042     15045     15046
     15043     15042     15045     15047     15043     15042     15045     15048
     15044     15042     15045     15046     15044     15042     15045     15047
     15044     15042     15045     15048     15045     15048     15051     15052
     15045     15048     15051     15053     15045     15048     15051     15054
     15046     15045     15048     15049     15046     15045     15048     15050
     15046     15045     15048     15051     15047     15045     15048     15049
     15047     15045     15048     15050     15047     15045     15048     15051
     15048     15051     15054     15055     15048     15051     15054     15056
     15048     15051     15054     15057     15049     15048     15051     15052
     15049     15048     15051     15053     15049     15048     15051     15054
     15050     15048     15051     15052     15050     15048     15051     15053
     15050     15048     15051     15054     15051     15054     15057     15058
     15051     15054     15057     15059     15051     15054     15057     15060
     15052     15051     15054     15055     15052     15051     15054     15056
     15052     15051     15054     15057     15053     15051     15054     15055
     15053     15051     15054     15056     15053     15051     15054     15057
     15054     15057     15060     15061     15054     15057     15060     15062
     15054     15057     15060     15063     15055     15054     15057     15058
     15055     15054     15057     15059     15055     15054     15057     15060
     15056     15054     15057     15058     15056     15054     15057     15059
     15056     15054     15057     15060     15057     15060     15063     15064
     15057     15060     15063     15065     15057     15060     15063     15066
     15058     15057     15060     15061     15058     15057     15060     15062
     15058     15057     15060     15063     15059     15057     15060     15061
     15059     15057     15060     15062     15059     15057     15060     15063
     15060     15063     15066     15067     15060     15063     15066     15068
     15060     15063     15066     15069     15061     15060     15063     15064
     15061     15060     15063     15065     15061     15060     15063     15066
     15062     15060     15063     15064     15062     15060     15063     15065
     15062     15060     15063     15066     15064     15063     15066     15067
     15064     15063     15066     15068     15064     15063     15066     15069
     15065     15063     15066     15067     15065     15063     15066     15068
     15065     15063     15066     15069     15070     15072     15075     15076
     15070     15072     15075     15077     15070     15072     15075     15078
     15071     15070     15072     15073     15071     15070     15072     15074
     15071     15070     15072     15075     15072     15075     15078     15079
     15072     15075     15078     15080     15072     15075     15078     15081
     15073     15072     15075     15076     15073     15072     15075     15077
     15073     15072     15075     15078     15074     15072     15075     15076
     15074     15072     15075     15077     15074     15072     15075     15078
     15075     15078     15081     15082     15075     15078     15081     15083
     15075     15078     15081     15084     15076     15075     15078     15079
     15076     15075     15078     15080     15076     15075     15078     15081
     15077     15075     15078     15079     15077     15075     15078     15080
     15077     15075     15078     15081     15078     15081     15084     15085
     15078     15081     15084     15086     15078     15081     15084     15087
     15079     15078     15081     15082     15079     15078     15081     15083
     15079     15078     15081     15084     15080     15078     15081     15082
     15080     15078     15081     15083     15080     15078     15081     15084
     15081     15084     15087     15088     15081     15084     15087     15089
     15081     15084     15087     15090     15082     15081     15084     15085
     15082     15081     15084     15086     15082     15081     15084     15087
     15083     15081     15084     15085     15083     15081     15084     15086
     15083     15081     15084     15087     15084     15087     15090     15091
     15084     15087     15090     15092     15084     15087     15090     15093
     15085     15084     15087     15088     15085     15084     15087     15089
     15085     15084     15087     15090     15086     15084     15087     15088
     15086     15084     15087     15089     15086     15084     15087     15090
     15087     15090     15093     15094     15087     15090     15093     15095
     15088     15087     15090     15091     15088     15087     15090     15092
     15088     15087     15090     15093     15089     15087     15090     15091
     15089     15087     15090     15092     15089     15087     15090     15093
     15090     15093     15095     15096     15090     15093     15095     15097
     15091     15090     15093     15094     15091     15090     15093     15095
     15092     15090     15093     15094     15092     15090     15093     15095
     15093     15095     15097     15098     15093     15095     15097     15099
     15093     15095     15097     15100     15094     15093     15095     15096
     15094     15093     15095     15097     15095     15097     15100     15101
     15095     15097     15100     15102     15095     15097     15100     15103
     15096     15095     15097     15098     15096     15095     15097     15099
     15096     15095     15097     15100     15097     15100     15103     15104
     15097     15100     15103     15105     15097     15100     15103     15106
     15098     15097     15100     15101     15098     15097     15100     15102
     15098     15097     15100     15103     15099     15097     15100     15101
     15099     15097     15100     15102     15099     15097     15100     15103
     15100     15103     15106     15107     15100     15103     15106     15108
     15100     15103     15106     15109     15101     15100     15103     15104
     15101     15100     15103     15105     15101     15100     15103     15106
     15102     15100     15103     15104     15102     15100     15103     15105
     15102     15100     15103     15106     15103     15106     15109     15110
     15103     15106     15109     15111     15103     15106     15109     15112
     15104     15103     15106     15107     15104     15103     15106     15108
     15104     15103     15106     15109     15105     15103     15106     15107
     15105     15103     15106     15108     15105     15103     15106     15109
     15106     15109     15112     15113     15106     15109     15112     15114
     15106     15109     15112     15115     15107     15106     15109     15110
     15107     15106     15109     15111     15107     15106     15109     15112
     15108     15106     15109     15110     15108     15106     15109     15111
     15108     15106     15109     15112     15109     15112     15115     15116
     15109     15112     15115     15117     15109     15112     15115     15118
     15110     15109     15112     15113     15110     15109     15112     15114
     15110     15109     15112     15115     15111     15109     15112     15113
     15111     15109     15112     15114     15111     15109     15112     15115
     15112     15115     15118     15119     15112     15115     15118     15120
     15112     15115     15118     15121     15113     15112     15115     15116
     15113     15112     15115     15117     15113     15112     15115     15118
     15114     15112     15115     15116     15114     15112     15115     15117
     15114     15112     15115     15118     15116     15115     15118     15119
     15116     15115     15118     15120     15116     15115     15118     15121
     15117     15115     15118     15119     15117     15115     15118     15120
     15117     15115     15118     15121     15122     15126     15129     15130
     15122     15126     15129     15160     15122     15168     15165     15160
     15122     15168     15165     15166     15122     15168     15165     15167
     15123     15122     15124     15125     15123     15122     15126     15127
     15123     15122     15126     15128     15123     15122     15126     15129
     15123     15122     15168     15165     15123     15122     15168     15169
     15123     15122     15168     15170     15124     15122     15126     15127
     15124     15122     15126     15128     15124     15122     15126     15129
     15124     15122     15168     15165     15124     15122     15168     15169
     15124     15122     15168     15170     15125     15124     15122     15126
     15125     15124     15122     15168     15126     15122     15168     15165
     15126     15122     15168     15169     15126     15122     15168     15170
     15126     15129     15130     15131     15126     15129     15130     15132
     15126     15129     15160     15158     15126     15129     15160     15161
     15126     15129     15160     15165     15127     15126     15122     15168
     15127     15126     15129     15130     15127     15126     15129     15160
     15128     15126     15122     15168     15128     15126     15129     15130
     15128     15126     15129     15160     15129     15126     15122     15168
     15129     15130     15132     15133     15129     15130     15132     15134
     15129     15130     15132     15135     15129     15160     15158     15135
     15129     15160     15158     15155     15129     15160     15158     15159
     15129     15160     15161     15162     15129     15160     15161     15163
     15129     15160     15161     15164     15129     15160     15165     15166
     15129     15160     15165     15167     15129     15160     15165     15168
     15130     15129     15160     15158     15130     15129     15160     15161
     15130     15129     15160     15165     15130     15132     15135     15136
     15130     15132     15135     15137     15130     15132     15135     15158
     15131     15130     15129     15160     15131     15130     15132     15133
     15131     15130     15132     15134     15131     15130     15132     15135
     15132     15130     15129     15160     15132     15135     15137     15138
     15132     15135     15137     15139     15132     15135     15137     15147
     15132     15135     15158     15155     15132     15135     15158     15159
     15132     15135     15158     15160     15133     15132     15135     15136
     15133     15132     15135     15137     15133     15132     15135     15158
     15134     15132     15135     15136     15134     15132     15135     15137
     15134     15132     15135     15158     15135     15137     15139     15140
     15135     15137     15139     15141     15135     15137     15139     15142
     15135     15137     15147     15145     15135     15137     15147     15148
     15135     15137     15147     15152     15135     15158     15155     15152
     15135     15158     15155     15156     15135     15158     15155     15157
     15135     15158     15160     15161     15135     15158     15160     15165
     15136     15135     15137     15138     15136     15135     15137     15139
     15136     15135     15137     15147     15136     15135     15158     15155
     15136     15135     15158     15159     15136     15135     15158     15160
     15137     15135     15158     15155     15137     15135     15158     15159
     15137     15135     15158     15160     15137     15139     15142     15143
     15137     15139     15142     15144     15137     15139     15142     15145
     15137     15147     15145     15142     15137     15147     15145     15146
     15137     15147     15145     15171     15137     15147     15148     15149
     15137     15147     15148     15150     15137     15147     15148     15151
     15137     15147     15152     15153     15137     15147     15152     15154
     15137     15147     15152     15155     15138     15137     15135     15158
     15138     15137     15139     15140     15138     15137     15139     15141
     15138     15137     15139     15142     15138     15137     15147     15145
     15138     15137     15147     15148     15138     15137     15147     15152
     15139     15137     15135     15158     15139     15137     15147     15145
     15139     15137     15147     15148     15139     15137     15147     15152
     15139     15142     15145     15146     15139     15142     15145     15147
     15139     15142     15145     15171     15140     15139     15137     15147
     15140     15139     15142     15143     15140     15139     15142     15144
     15140     15139     15142     15145     15141     15139     15137     15147
     15141     15139     15142     15143     15141     15139     15142     15144
     15141     15139     15142     15145     15142     15139     15137     15147
     15142     15145     15147     15148     15142     15145     15147     15152
     15142     15145     15171     15172     15142     15145     15171     15173
     15142     15145     15171     15177     15143     15142     15145     15146
     15143     15142     15145     15147     15143     15142     15145     15171
     15144     15142     15145     15146     15144     15142     15145     15147
     15144     15142     15145     15171     15145     15147     15148     15149
     15145     15147     15148     15150     15145     15147     15148     15151
     15145     15147     15152     15153     15145     15147     15152     15154
     15145     15147     15152     15155     15145     15171     15173     15174
     15145     15171     15173     15175     15145     15171     15173     15176
     15145     15171     15177     15178     15145     15171     15177     15179
     15145     15171     15177     15180     15146     15145     15147     15148
     15146     15145     15147     15152     15146     15145     15171     15172
     15146     15145     15171     15173     15146     15145     15171     15177
     15147     15137     15135     15158     15147     15145     15171     15172
     15147     15145     15171     15173     15147     15145     15171     15177
     15147     15152     15155     15156     15147     15152     15155     15157
     15147     15152     15155     15158     15148     15147     15145     15171
     15148     15147     15152     15153     15148     15147     15152     15154
     15148     15147     15152     15155     15149     15148     15147     15152
     15150     15148     15147     15152     15151     15148     15147     15152
     15152     15147     15145     15171     15152     15155     15158     15159
     15152     15155     15158     15160     15153     15152     15155     15156
     15153     15152     15155     15157     15153     15152     15155     15158
     15154     15152     15155     15156     15154     15152     15155     15157
     15154     15152     15155     15158     15155     15158     15160     15161
     15155     15158     15160     15165     15156     15155     15158     15159
     15156     15155     15158     15160     15157     15155     15158     15159
     15157     15155     15158     15160     15158     15160     15161     15162
     15158     15160     15161     15163     15158     15160     15161     15164
     15158     15160     15165     15166     15158     15160     15165     15167
     15158     15160     15165     15168     15159     15158     15160     15161
     15159     15158     15160     15165     15160     15165     15168     15169
     15160     15165     15168     15170     15161     15160     15165     15166
     15161     15160     15165     15167     15161     15160     15165     15168
     15162     15161     15160     15165     15163     15161     15160     15165
     15164     15161     15160     15165     15166     15165     15168     15169
     15166     15165     15168     15170     15167     15165     15168     15169
     15167     15165     15168     15170     15171     15177     15180     15181
     15171     15177     15180     15182     15171     15177     15180     15183
     15172     15171     15173     15174     15172     15171     15173     15175
     15172     15171     15173     15176     15172     15171     15177     15178
     15172     15171     15177     15179     15172     15171     15177     15180
     15173     15171     15177     15178     15173     15171     15177     15179
     15173     15171     15177     15180     15174     15173     15171     15177
     15175     15173     15171     15177     15176     15173     15171     15177
     15177     15180     15183     15184     15177     15180     15183     15185
     15177     15180     15183     15186     15178     15177     15180     15181
     15178     15177     15180     15182     15178     15177     15180     15183
     15179     15177     15180     15181     15179     15177     15180     15182
     15179     15177     15180     15183     15180     15183     15186     15187
     15180     15183     15186     15188     15180     15183     15186     15192
     15181     15180     15183     15184     15181     15180     15183     15185
     15181     15180     15183     15186     15182     15180     15183     15184
     15182     15180     15183     15185     15182     15180     15183     15186
     15183     15186     15188     15189     15183     15186     15188     15190
     15183     15186     15188     15191     15183     15186     15192     15193
     15183     15186     15192     15194     15183     15186     15192     15195
     15184     15183     15186     15187     15184     15183     15186     15188
     15184     15183     15186     15192     15185     15183     15186     15187
     15185     15183     15186     15188     15185     15183     15186     15192
     15187     15186     15188     15189     15187     15186     15188     15190
     15187     15186     15188     15191     15187     15186     15192     15193
     15187     15186     15192     15194     15187     15186     15192     15195
     15188     15186     15192     15193     15188     15186     15192     15194
     15188     15186     15192     15195     15189     15188     15186     15192
     15190     15188     15186     15192     15191     15188     15186     15192
     15196     15197     15212     15213     15196     15197     15212     15214
     15196     15197     15212     15218     15197     15196     15200     15201
     15197     15196     15200     15202     15197     15196     15200     15203
     15197     15196     15204     15205     15197     15196     15204     15206
     15197     15196     15204     15207     15197     15196     15208     15209
     15197     15196     15208     15210     15197     15196     15208     15211
     15197     15212     15218     15215     15198     15197     15196     15200
     15198     15197     15196     15204     15198     15197     15196     15208
     15198     15197     15212     15213     15198     15197     15212     15214
     15198     15197     15212     15218     15199     15197     15196     15200
     15199     15197     15196     15204     15199     15197     15196     15208
     15199     15197     15212     15213     15199     15197     15212     15214
     15199     15197     15212     15218     15200     15196     15197     15212
     15200     15196     15204     15205     15200     15196     15204     15206
     15200     15196     15204     15207     15200     15196     15208     15209
     15200     15196     15208     15210     15200     15196     15208     15211
     15201     15200     15196     15204     15201     15200     15196     15208
     15202     15200     15196     15204     15202     15200     15196     15208
     15203     15200     15196     15204     15203     15200     15196     15208
     15204     15196     15197     15212     15204     15196     15208     15209
     15204     15196     15208     15210     15204     15196     15208     15211
     15205     15204     15196     15208     15206     15204     15196     15208
     15207     15204     15196     15208     15208     15196     15197     15212
     15212     15218     15215     15216     15212     15218     15215     15217
     15212     15218     15215     15219     15213     15212     15218     15215
     15214     15212     15218     15215     15215     15219     15220     15221
     15215     15219     15220     15222     15215     15219     15220     15223
     15216     15215     15219     15220     15217     15215     15219     15220
     15218     15215     15219     15220     15219     15220     15223     15224
     15219     15220     15223     15225     15219     15220     15223     15231
     15220     15223     15225     15226     15220     15223     15231     15232
     15220     15223     15231     15233     15220     15223     15231     15234
     15221     15220     15223     15224     15221     15220     15223     15225
     15221     15220     15223     15231     15222     15220     15223     15224
     15222     15220     15223     15225     15222     15220     15223     15231
     15223     15225     15226     15227     15223     15225     15226     15228
     15223     15231     15234     15235     15224     15223     15225     15226
     15224     15223     15231     15232     15224     15223     15231     15233
     15224     15223     15231     15234     15225     15223     15231     15232
     15225     15223     15231     15233     15225     15223     15231     15234
     15225     15226     15228     15229     15225     15226     15228     15230
     15225     15226     15228     15240     15226     15225     15223     15231
     15226     15228     15240     15241     15226     15228     15240     15242
     15226     15228     15240     15243     15227     15226     15228     15229
     15227     15226     15228     15230     15227     15226     15228     15240
     15228     15240     15243     15244     15228     15240     15243     15245
     15228     15240     15243     15246     15229     15228     15240     15241
     15229     15228     15240     15242     15229     15228     15240     15243
     15230     15228     15240     15241     15230     15228     15240     15242
     15230     15228     15240     15243     15231     15234     15235     15236
     15231     15234     15235     15237     15232     15231     15234     15235
     15233     15231     15234     15235     15234     15235     15237     15238
     15234     15235     15237     15239     15234     15235     15237     15287
     15235     15237     15287     15288     15235     15237     15287     15289
     15235     15237     15287     15290     15236     15235     15237     15238
     15236     15235     15237     15239     15236     15235     15237     15287
     15237     15287     15290     15291     15237     15287     15290     15292
     15237     15287     15290     15293     15238     15237     15287     15288
     15238     15237     15287     15289     15238     15237     15287     15290
     15239     15237     15287     15288     15239     15237     15287     15289
     15239     15237     15287     15290     15240     15243     15246     15247
     15240     15243     15246     15248     15240     15243     15246     15249
     15241     15240     15243     15244     15241     15240     15243     15245
     15241     15240     15243     15246     15242     15240     15243     15244
     15242     15240     15243     15245     15242     15240     15243     15246
     15243     15246     15249     15250     15243     15246     15249     15251
     15243     15246     15249     15252     15244     15243     15246     15247
     15244     15243     15246     15248     15244     15243     15246     15249
     15245     15243     15246     15247     15245     15243     15246     15248
     15245     15243     15246     15249     15246     15249     15252     15253
     15246     15249     15252     15254     15246     15249     15252     15255
     15247     15246     15249     15250     15247     15246     15249     15251
     15247     15246     15249     15252     15248     15246     15249     15250
     15248     15246     15249     15251     15248     15246     15249     15252
     15249     15252     15255     15256     15249     15252     15255     15257
     15249     15252     15255     15258     15250     15249     15252     15253
     15250     15249     15252     15254     15250     15249     15252     15255
     15251     15249     15252     15253     15251     15249     15252     15254
     15251     15249     15252     15255     15252     15255     15258     15259
     15252     15255     15258     15260     15253     15252     15255     15256
     15253     15252     15255     15257     15253     15252     15255     15258
     15254     15252     15255     15256     15254     15252     15255     15257
     15254     15252     15255     15258     15255     15258     15260     15261
     15255     15258     15260     15262     15256     15255     15258     15259
     15256     15255     15258     15260     15257     15255     15258     15259
     15257     15255     15258     15260     15258     15260     15262     15263
     15258     15260     15262     15264     15258     15260     15262     15265
     15259     15258     15260     15261     15259     15258     15260     15262
     15260     15262     15265     15266     15260     15262     15265     15267
     15260     15262     15265     15268     15261     15260     15262     15263
     15261     15260     15262     15264     15261     15260     15262     15265
     15262     15265     15268     15269     15262     15265     15268     15270
     15262     15265     15268     15271     15263     15262     15265     15266
     15263     15262     15265     15267     15263     15262     15265     15268
     15264     15262     15265     15266     15264     15262     15265     15267
     15264     15262     15265     15268     15265     15268     15271     15272
     15265     15268     15271     15273     15265     15268     15271     15274
     15266     15265     15268     15269     15266     15265     15268     15270
     15266     15265     15268     15271     15267     15265     15268     15269
     15267     15265     15268     15270     15267     15265     15268     15271
     15268     15271     15274     15275     15268     15271     15274     15276
     15268     15271     15274     15277     15269     15268     15271     15272
     15269     15268     15271     15273     15269     15268     15271     15274
     15270     15268     15271     15272     15270     15268     15271     15273
     15270     15268     15271     15274     15271     15274     15277     15278
     15271     15274     15277     15279     15271     15274     15277     15280
     15272     15271     15274     15275     15272     15271     15274     15276
     15272     15271     15274     15277     15273     15271     15274     15275
     15273     15271     15274     15276     15273     15271     15274     15277
     15274     15277     15280     15281     15274     15277     15280     15282
     15274     15277     15280     15283     15275     15274     15277     15278
     15275     15274     15277     15279     15275     15274     15277     15280
     15276     15274     15277     15278     15276     15274     15277     15279
     15276     15274     15277     15280     15277     15280     15283     15284
     15277     15280     15283     15285     15277     15280     15283     15286
     15278     15277     15280     15281     15278     15277     15280     15282
     15278     15277     15280     15283     15279     15277     15280     15281
     15279     15277     15280     15282     15279     15277     15280     15283
     15281     15280     15283     15284     15281     15280     15283     15285
     15281     15280     15283     15286     15282     15280     15283     15284
     15282     15280     15283     15285     15282     15280     15283     15286
     15287     15290     15293     15294     15287     15290     15293     15295
     15287     15290     15293     15296     15288     15287     15290     15291
     15288     15287     15290     15292     15288     15287     15290     15293
     15289     15287     15290     15291     15289     15287     15290     15292
     15289     15287     15290     15293     15290     15293     15296     15297
     15290     15293     15296     15298     15290     15293     15296     15299
     15291     15290     15293     15294     15291     15290     15293     15295
     15291     15290     15293     15296     15292     15290     15293     15294
     15292     15290     15293     15295     15292     15290     15293     15296
     15293     15296     15299     15300     15293     15296     15299     15301
     15293     15296     15299     15302     15294     15293     15296     15297
     15294     15293     15296     15298     15294     15293     15296     15299
     15295     15293     15296     15297     15295     15293     15296     15298
     15295     15293     15296     15299     15296     15299     15302     15303
     15296     15299     15302     15304     15296     15299     15302     15305
     15297     15296     15299     15300     15297     15296     15299     15301
     15297     15296     15299     15302     15298     15296     15299     15300
     15298     15296     15299     15301     15298     15296     15299     15302
     15299     15302     15305     15306     15299     15302     15305     15307
     15299     15302     15305     15308     15300     15299     15302     15303
     15300     15299     15302     15304     15300     15299     15302     15305
     15301     15299     15302     15303     15301     15299     15302     15304
     15301     15299     15302     15305     15302     15305     15308     15309
     15302     15305     15308     15310     15302     15305     15308     15311
     15303     15302     15305     15306     15303     15302     15305     15307
     15303     15302     15305     15308     15304     15302     15305     15306
     15304     15302     15305     15307     15304     15302     15305     15308
     15305     15308     15311     15312     15305     15308     15311     15313
     15305     15308     15311     15314     15306     15305     15308     15309
     15306     15305     15308     15310     15306     15305     15308     15311
     15307     15305     15308     15309     15307     15305     15308     15310
     15307     15305     15308     15311     15308     15311     15314     15315
     15308     15311     15314     15316     15308     15311     15314     15317
     15309     15308     15311     15312     15309     15308     15311     15313
     15309     15308     15311     15314     15310     15308     15311     15312
     15310     15308     15311     15313     15310     15308     15311     15314
     15311     15314     15317     15318     15311     15314     15317     15319
     15311     15314     15317     15320     15312     15311     15314     15315
     15312     15311     15314     15316     15312     15311     15314     15317
     15313     15311     15314     15315     15313     15311     15314     15316
     15313     15311     15314     15317     15314     15317     15320     15321
     15314     15317     15320     15322     15314     15317     15320     15323
     15315     15314     15317     15318     15315     15314     15317     15319
     15315     15314     15317     15320     15316     15314     15317     15318
     15316     15314     15317     15319     15316     15314     15317     15320
     15317     15320     15323     15324     15317     15320     15323     15325
     15317     15320     15323     15326     15318     15317     15320     15321
     15318     15317     15320     15322     15318     15317     15320     15323
     15319     15317     15320     15321     15319     15317     15320     15322
     15319     15317     15320     15323     15320     15323     15326     15327
     15320     15323     15326     15328     15320     15323     15326     15329
     15321     15320     15323     15324     15321     15320     15323     15325
     15321     15320     15323     15326     15322     15320     15323     15324
     15322     15320     15323     15325     15322     15320     15323     15326
     15324     15323     15326     15327     15324     15323     15326     15328
     15324     15323     15326     15329     15325     15323     15326     15327
     15325     15323     15326     15328     15325     15323     15326     15329
     15330     15343     15346     15347     15330     15343     15346     15348
     15330     15343     15346     15353     15331     15330     15335     15336
     15331     15330     15335     15337     15331     15330     15335     15338
     15331     15330     15339     15340     15331     15330     15339     15341
     15331     15330     15339     15342     15331     15330     15343     15344
     15331     15330     15343     15345     15331     15330     15343     15346
     15332     15331     15330     15335     15332     15331     15330     15339
     15332     15331     15330     15343     15333     15331     15330     15335
     15333     15331     15330     15339     15333     15331     15330     15343
     15334     15331     15330     15335     15334     15331     15330     15339
     15334     15331     15330     15343     15335     15330     15339     15340
     15335     15330     15339     15341     15335     15330     15339     15342
     15335     15330     15343     15344     15335     15330     15343     15345
     15335     15330     15343     15346     15336     15335     15330     15339
     15336     15335     15330     15343     15337     15335     15330     15339
     15337     15335     15330     15343     15338     15335     15330     15339
     15338     15335     15330     15343     15339     15330     15343     15344
     15339     15330     15343     15345     15339     15330     15343     15346
     15340     15339     15330     15343     15341     15339     15330     15343
     15342     15339     15330     15343     15343     15346     15353     15349
     15344     15343     15346     15347     15344     15343     15346     15348
     15344     15343     15346     15353     15345     15343     15346     15347
     15345     15343     15346     15348     15345     15343     15346     15353
     15346     15353     15349     15350     15346     15353     15349     15351
     15346     15353     15349     15352     15347     15346     15353     15349
     15348     15346     15353     15349     15349     15352     15354     15355
     15349     15352     15354     15356     15349     15352     15354     15359
     15350     15349     15352     15354     15351     15349     15352     15354
     15352     15354     15359     15357     15352     15354     15359     15360
     15352     15354     15359     15361     15353     15349     15352     15354
     15354     15359     15357     15358     15354     15359     15357     15409
     15354     15359     15361     15362     15354     15359     15361     15363
     15354     15359     15361     15365     15355     15354     15359     15357
     15355     15354     15359     15360     15355     15354     15359     15361
     15356     15354     15359     15357     15356     15354     15359     15360
     15356     15354     15359     15361     15357     15359     15361     15362
     15357     15359     15361     15363     15357     15359     15361     15365
     15357     15409     15411     15412     15357     15409     15411     15413
     15357     15409     15411     15414     15358     15357     15359     15360
     15358     15357     15359     15361     15358     15357     15409     15410
     15358     15357     15409     15411     15359     15357     15409     15410
     15359     15357     15409     15411     15359     15361     15363     15364
     15359     15361     15365     15366     15359     15361     15365     15367
     15360     15359     15357     15409     15360     15359     15361     15362
     15360     15359     15361     15363     15360     15359     15361     15365
     15361     15359     15357     15409     15361     15365     15367     15368
     15361     15365     15367     15369     15362     15361     15363     15364
     15362     15361     15365     15366     15362     15361     15365     15367
     15363     15361     15365     15366     15363     15361     15365     15367
     15364     15363     15361     15365     15365     15367     15369     15370
     15365     15367     15369     15371     15365     15367     15369     15372
     15366     15365     15367     15368     15366     15365     15367     15369
     15367     15369     15372     15373     15367     15369     15372     15374
     15367     15369     15372     15375     15368     15367     15369     15370
     15368     15367     15369     15371     15368     15367     15369     15372
     15369     15372     15375     15376     15369     15372     15375     15377
     15369     15372     15375     15378     15370     15369     15372     15373
     15370     15369     15372     15374     15370     15369     15372     15375
     15371     15369     15372     15373     15371     15369     15372     15374
     15371     15369     15372     15375     15372     15375     15378     15379
     15372     15375     15378     15380     15372     15375     15378     15381
     15373     15372     15375     15376     15373     15372     15375     15377
     15373     15372     15375     15378     15374     15372     15375     15376
     15374     15372     15375     15377     15374     15372     15375     15378
     15375     15378     15381     15382     15375     15378     15381     15383
     15375     15378     15381     15384     15376     15375     15378     15379
     15376     15375     15378     15380     15376     15375     15378     15381
     15377     15375     15378     15379     15377     15375     15378     15380
     15377     15375     15378     15381     15378     15381     15384     15385
     15378     15381     15384     15386     15378     15381     15384     15387
     15379     15378     15381     15382     15379     15378     15381     15383
     15379     15378     15381     15384     15380     15378     15381     15382
     15380     15378     15381     15383     15380     15378     15381     15384
     15381     15384     15387     15388     15381     15384     15387     15389
     15381     15384     15387     15390     15382     15381     15384     15385
     15382     15381     15384     15386     15382     15381     15384     15387
     15383     15381     15384     15385     15383     15381     15384     15386
     15383     15381     15384     15387     15384     15387     15390     15391
     15384     15387     15390     15392     15384     15387     15390     15393
     15385     15384     15387     15388     15385     15384     15387     15389
     15385     15384     15387     15390     15386     15384     15387     15388
     15386     15384     15387     15389     15386     15384     15387     15390
     15387     15390     15393     15394     15387     15390     15393     15395
     15387     15390     15393     15396     15388     15387     15390     15391
     15388     15387     15390     15392     15388     15387     15390     15393
     15389     15387     15390     15391     15389     15387     15390     15392
     15389     15387     15390     15393     15390     15393     15396     15397
     15390     15393     15396     15398     15390     15393     15396     15399
     15391     15390     15393     15394     15391     15390     15393     15395
     15391     15390     15393     15396     15392     15390     15393     15394
     15392     15390     15393     15395     15392     15390     15393     15396
     15393     15396     15399     15400     15393     15396     15399     15401
     15393     15396     15399     15402     15394     15393     15396     15397
     15394     15393     15396     15398     15394     15393     15396     15399
     15395     15393     15396     15397     15395     15393     15396     15398
     15395     15393     15396     15399     15396     15399     15402     15403
     15396     15399     15402     15404     15396     15399     15402     15405
     15397     15396     15399     15400     15397     15396     15399     15401
     15397     15396     15399     15402     15398     15396     15399     15400
     15398     15396     15399     15401     15398     15396     15399     15402
     15399     15402     15405     15406     15399     15402     15405     15407
     15399     15402     15405     15408     15400     15399     15402     15403
     15400     15399     15402     15404     15400     15399     15402     15405
     15401     15399     15402     15403     15401     15399     15402     15404
     15401     15399     15402     15405     15403     15402     15405     15406
     15403     15402     15405     15407     15403     15402     15405     15408
     15404     15402     15405     15406     15404     15402     15405     15407
     15404     15402     15405     15408     15409     15411     15414     15415
     15409     15411     15414     15416     15409     15411     15414     15417
     15410     15409     15411     15412     15410     15409     15411     15413
     15410     15409     15411     15414     15411     15414     15417     15418
     15411     15414     15417     15419     15411     15414     15417     15420
     15412     15411     15414     15415     15412     15411     15414     15416
     15412     15411     15414     15417     15413     15411     15414     15415
     15413     15411     15414     15416     15413     15411     15414     15417
     15414     15417     15420     15421     15414     15417     15420     15422
     15414     15417     15420     15423     15415     15414     15417     15418
     15415     15414     15417     15419     15415     15414     15417     15420
     15416     15414     15417     15418     15416     15414     15417     15419
     15416     15414     15417     15420     15417     15420     15423     15424
     15417     15420     15423     15425     15417     15420     15423     15426
     15418     15417     15420     15421     15418     15417     15420     15422
     15418     15417     15420     15423     15419     15417     15420     15421
     15419     15417     15420     15422     15419     15417     15420     15423
     15420     15423     15426     15427     15420     15423     15426     15428
     15420     15423     15426     15429     15421     15420     15423     15424
     15421     15420     15423     15425     15421     15420     15423     15426
     15422     15420     15423     15424     15422     15420     15423     15425
     15422     15420     15423     15426     15423     15426     15429     15430
     15423     15426     15429     15431     15423     15426     15429     15432
     15424     15423     15426     15427     15424     15423     15426     15428
     15424     15423     15426     15429     15425     15423     15426     15427
     15425     15423     15426     15428     15425     15423     15426     15429
     15426     15429     15432     15433     15426     15429     15432     15434
     15427     15426     15429     15430     15427     15426     15429     15431
     15427     15426     15429     15432     15428     15426     15429     15430
     15428     15426     15429     15431     15428     15426     15429     15432
     15429     15432     15434     15435     15429     15432     15434     15436
     15430     15429     15432     15433     15430     15429     15432     15434
     15431     15429     15432     15433     15431     15429     15432     15434
     15432     15434     15436     15437     15432     15434     15436     15438
     15432     15434     15436     15439     15433     15432     15434     15435
     15433     15432     15434     15436     15434     15436     15439     15440
     15434     15436     15439     15441     15434     15436     15439     15442
     15435     15434     15436     15437     15435     15434     15436     15438
     15435     15434     15436     15439     15436     15439     15442     15443
     15436     15439     15442     15444     15436     15439     15442     15445
     15437     15436     15439     15440     15437     15436     15439     15441
     15437     15436     15439     15442     15438     15436     15439     15440
     15438     15436     15439     15441     15438     15436     15439     15442
     15439     15442     15445     15446     15439     15442     15445     15447
     15439     15442     15445     15448     15440     15439     15442     15443
     15440     15439     15442     15444     15440     15439     15442     15445
     15441     15439     15442     15443     15441     15439     15442     15444
     15441     15439     15442     15445     15442     15445     15448     15449
     15442     15445     15448     15450     15442     15445     15448     15451
     15443     15442     15445     15446     15443     15442     15445     15447
     15443     15442     15445     15448     15444     15442     15445     15446
     15444     15442     15445     15447     15444     15442     15445     15448
     15445     15448     15451     15452     15445     15448     15451     15453
     15445     15448     15451     15454     15446     15445     15448     15449
     15446     15445     15448     15450     15446     15445     15448     15451
     15447     15445     15448     15449     15447     15445     15448     15450
     15447     15445     15448     15451     15448     15451     15454     15455
     15448     15451     15454     15456     15448     15451     15454     15457
     15449     15448     15451     15452     15449     15448     15451     15453
     15449     15448     15451     15454     15450     15448     15451     15452
     15450     15448     15451     15453     15450     15448     15451     15454
     15451     15454     15457     15458     15451     15454     15457     15459
     15451     15454     15457     15460     15452     15451     15454     15455
     15452     15451     15454     15456     15452     15451     15454     15457
     15453     15451     15454     15455     15453     15451     15454     15456
     15453     15451     15454     15457     15455     15454     15457     15458
     15455     15454     15457     15459     15455     15454     15457     15460
     15456     15454     15457     15458     15456     15454     15457     15459
     15456     15454     15457     15460     15461     15465     15468     15469
     15461     15465     15468     15470     15461     15465     15468     15474
     15462     15461     15465     15466     15462     15461     15465     15467
     15462     15461     15465     15468     15463     15461     15465     15466
     15463     15461     15465     15467     15463     15461     15465     15468
     15464     15461     15465     15466     15464     15461     15465     15467
     15464     15461     15465     15468     15465     15468     15474     15471
     15466     15465     15468     15469     15466     15465     15468     15470
     15466     15465     15468     15474     15467     15465     15468     15469
     15467     15465     15468     15470     15467     15465     15468     15474
     15468     15474     15471     15472     15468     15474     15471     15473
     15468     15474     15471     15475     15469     15468     15474     15471
     15470     15468     15474     15471     15471     15475     15476     15477
     15471     15475     15476     15478     15471     15475     15476     15479
     15472     15471     15475     15476     15473     15471     15475     15476
     15474     15471     15475     15476     15475     15476     15479     15480
     15475     15476     15479     15481     15475     15476     15479     15487
     15476     15479     15481     15482     15476     15479     15487     15488
     15476     15479     15487     15489     15476     15479     15487     15490
     15477     15476     15479     15480     15477     15476     15479     15481
     15477     15476     15479     15487     15478     15476     15479     15480
     15478     15476     15479     15481     15478     15476     15479     15487
     15479     15481     15482     15483     15479     15481     15482     15484
     15479     15487     15490     15491     15480     15479     15481     15482
     15480     15479     15487     15488     15480     15479     15487     15489
     15480     15479     15487     15490     15481     15479     15487     15488
     15481     15479     15487     15489     15481     15479     15487     15490
     15481     15482     15484     15485     15481     15482     15484     15486
     15481     15482     15484     15496     15482     15481     15479     15487
     15482     15484     15496     15497     15482     15484     15496     15498
     15482     15484     15496     15499     15483     15482     15484     15485
     15483     15482     15484     15486     15483     15482     15484     15496
     15484     15496     15499     15500     15484     15496     15499     15501
     15484     15496     15499     15502     15485     15484     15496     15497
     15485     15484     15496     15498     15485     15484     15496     15499
     15486     15484     15496     15497     15486     15484     15496     15498
     15486     15484     15496     15499     15487     15490     15491     15492
     15487     15490     15491     15493     15488     15487     15490     15491
     15489     15487     15490     15491     15490     15491     15493     15494
     15490     15491     15493     15495     15490     15491     15493     15543
     15491     15493     15543     15544     15491     15493     15543     15545
     15491     15493     15543     15546     15492     15491     15493     15494
     15492     15491     15493     15495     15492     15491     15493     15543
     15493     15543     15546     15547     15493     15543     15546     15548
     15493     15543     15546     15549     15494     15493     15543     15544
     15494     15493     15543     15545     15494     15493     15543     15546
     15495     15493     15543     15544     15495     15493     15543     15545
     15495     15493     15543     15546     15496     15499     15502     15503
     15496     15499     15502     15504     15496     15499     15502     15505
     15497     15496     15499     15500     15497     15496     15499     15501
     15497     15496     15499     15502     15498     15496     15499     15500
     15498     15496     15499     15501     15498     15496     15499     15502
     15499     15502     15505     15506     15499     15502     15505     15507
     15499     15502     15505     15508     15500     15499     15502     15503
     15500     15499     15502     15504     15500     15499     15502     15505
     15501     15499     15502     15503     15501     15499     15502     15504
     15501     15499     15502     15505     15502     15505     15508     15509
     15502     15505     15508     15510     15502     15505     15508     15511
     15503     15502     15505     15506     15503     15502     15505     15507
     15503     15502     15505     15508     15504     15502     15505     15506
     15504     15502     15505     15507     15504     15502     15505     15508
     15505     15508     15511     15512     15505     15508     15511     15513
     15505     15508     15511     15514     15506     15505     15508     15509
     15506     15505     15508     15510     15506     15505     15508     15511
     15507     15505     15508     15509     15507     15505     15508     15510
     15507     15505     15508     15511     15508     15511     15514     15515
     15508     15511     15514     15516     15509     15508     15511     15512
     15509     15508     15511     15513     15509     15508     15511     15514
     15510     15508     15511     15512     15510     15508     15511     15513
     15510     15508     15511     15514     15511     15514     15516     15517
     15511     15514     15516     15518     15512     15511     15514     15515
     15512     15511     15514     15516     15513     15511     15514     15515
     15513     15511     15514     15516     15514     15516     15518     15519
     15514     15516     15518     15520     15514     15516     15518     15521
     15515     15514     15516     15517     15515     15514     15516     15518
     15516     15518     15521     15522     15516     15518     15521     15523
     15516     15518     15521     15524     15517     15516     15518     15519
     15517     15516     15518     15520     15517     15516     15518     15521
     15518     15521     15524     15525     15518     15521     15524     15526
     15518     15521     15524     15527     15519     15518     15521     15522
     15519     15518     15521     15523     15519     15518     15521     15524
     15520     15518     15521     15522     15520     15518     15521     15523
     15520     15518     15521     15524     15521     15524     15527     15528
     15521     15524     15527     15529     15521     15524     15527     15530
     15522     15521     15524     15525     15522     15521     15524     15526
     15522     15521     15524     15527     15523     15521     15524     15525
     15523     15521     15524     15526     15523     15521     15524     15527
     15524     15527     15530     15531     15524     15527     15530     15532
     15524     15527     15530     15533     15525     15524     15527     15528
     15525     15524     15527     15529     15525     15524     15527     15530
     15526     15524     15527     15528     15526     15524     15527     15529
     15526     15524     15527     15530     15527     15530     15533     15534
     15527     15530     15533     15535     15527     15530     15533     15536
     15528     15527     15530     15531     15528     15527     15530     15532
     15528     15527     15530     15533     15529     15527     15530     15531
     15529     15527     15530     15532     15529     15527     15530     15533
     15530     15533     15536     15537     15530     15533     15536     15538
     15530     15533     15536     15539     15531     15530     15533     15534
     15531     15530     15533     15535     15531     15530     15533     15536
     15532     15530     15533     15534     15532     15530     15533     15535
     15532     15530     15533     15536     15533     15536     15539     15540
     15533     15536     15539     15541     15533     15536     15539     15542
     15534     15533     15536     15537     15534     15533     15536     15538
     15534     15533     15536     15539     15535     15533     15536     15537
     15535     15533     15536     15538     15535     15533     15536     15539
     15537     15536     15539     15540     15537     15536     15539     15541
     15537     15536     15539     15542     15538     15536     15539     15540
     15538     15536     15539     15541     15538     15536     15539     15542
     15543     15546     15549     15550     15543     15546     15549     15551
     15543     15546     15549     15552     15544     15543     15546     15547
     15544     15543     15546     15548     15544     15543     15546     15549
     15545     15543     15546     15547     15545     15543     15546     15548
     15545     15543     15546     15549     15546     15549     15552     15553
     15546     15549     15552     15554     15546     15549     15552     15555
     15547     15546     15549     15550     15547     15546     15549     15551
     15547     15546     15549     15552     15548     15546     15549     15550
     15548     15546     15549     15551     15548     15546     15549     15552
     15549     15552     15555     15556     15549     15552     15555     15557
     15549     15552     15555     15558     15550     15549     15552     15553
     15550     15549     15552     15554     15550     15549     15552     15555
     15551     15549     15552     15553     15551     15549     15552     15554
     15551     15549     15552     15555     15552     15555     15558     15559
     15552     15555     15558     15560     15552     15555     15558     15561
     15553     15552     15555     15556     15553     15552     15555     15557
     15553     15552     15555     15558     15554     15552     15555     15556
     15554     15552     15555     15557     15554     15552     15555     15558
     15555     15558     15561     15562     15555     15558     15561     15563
     15555     15558     15561     15564     15556     15555     15558     15559
     15556     15555     15558     15560     15556     15555     15558     15561
     15557     15555     15558     15559     15557     15555     15558     15560
     15557     15555     15558     15561     15558     15561     15564     15565
     15558     15561     15564     15566     15558     15561     15564     15567
     15559     15558     15561     15562     15559     15558     15561     15563
     15559     15558     15561     15564     15560     15558     15561     15562
     15560     15558     15561     15563     15560     15558     15561     15564
     15561     15564     15567     15568     15561     15564     15567     15569
     15561     15564     15567     15570     15562     15561     15564     15565
     15562     15561     15564     15566     15562     15561     15564     15567
     15563     15561     15564     15565     15563     15561     15564     15566
     15563     15561     15564     15567     15564     15567     15570     15571
     15564     15567     15570     15572     15564     15567     15570     15573
     15565     15564     15567     15568     15565     15564     15567     15569
     15565     15564     15567     15570     15566     15564     15567     15568
     15566     15564     15567     15569     15566     15564     15567     15570
     15567     15570     15573     15574     15567     15570     15573     15575
     15567     15570     15573     15576     15568     15567     15570     15571
     15568     15567     15570     15572     15568     15567     15570     15573
     15569     15567     15570     15571     15569     15567     15570     15572
     15569     15567     15570     15573     15570     15573     15576     15577
     15570     15573     15576     15578     15570     15573     15576     15579
     15571     15570     15573     15574     15571     15570     15573     15575
     15571     15570     15573     15576     15572     15570     15573     15574
     15572     15570     15573     15575     15572     15570     15573     15576
     15573     15576     15579     15580     15573     15576     15579     15581
     15573     15576     15579     15582     15574     15573     15576     15577
     15574     15573     15576     15578     15574     15573     15576     15579
     15575     15573     15576     15577     15575     15573     15576     15578
     15575     15573     15576     15579     15576     15579     15582     15583
     15576     15579     15582     15584     15576     15579     15582     15585
     15577     15576     15579     15580     15577     15576     15579     15581
     15577     15576     15579     15582     15578     15576     15579     15580
     15578     15576     15579     15581     15578     15576     15579     15582
     15579     15582     15585     15586     15579     15582     15585     15587
     15579     15582     15585     15588     15580     15579     15582     15583
     15580     15579     15582     15584     15580     15579     15582     15585
     15581     15579     15582     15583     15581     15579     15582     15584
     15581     15579     15582     15585     15582     15585     15588     15589
     15582     15585     15588     15590     15582     15585     15588     15591
     15583     15582     15585     15586     15583     15582     15585     15587
     15583     15582     15585     15588     15584     15582     15585     15586
     15584     15582     15585     15587     15584     15582     15585     15588
     15586     15585     15588     15589     15586     15585     15588     15590
     15586     15585     15588     15591     15587     15585     15588     15589
     15587     15585     15588     15590     15587     15585     15588     15591
     15592     15605     15608     15609     15592     15605     15608     15610
     15592     15605     15608     15615     15593     15592     15597     15598
     15593     15592     15597     15599     15593     15592     15597     15600
     15593     15592     15601     15602     15593     15592     15601     15603
     15593     15592     15601     15604     15593     15592     15605     15606
     15593     15592     15605     15607     15593     15592     15605     15608
     15594     15593     15592     15597     15594     15593     15592     15601
     15594     15593     15592     15605     15595     15593     15592     15597
     15595     15593     15592     15601     15595     15593     15592     15605
     15596     15593     15592     15597     15596     15593     15592     15601
     15596     15593     15592     15605     15597     15592     15601     15602
     15597     15592     15601     15603     15597     15592     15601     15604
     15597     15592     15605     15606     15597     15592     15605     15607
     15597     15592     15605     15608     15598     15597     15592     15601
     15598     15597     15592     15605     15599     15597     15592     15601
     15599     15597     15592     15605     15600     15597     15592     15601
     15600     15597     15592     15605     15601     15592     15605     15606
     15601     15592     15605     15607     15601     15592     15605     15608
     15602     15601     15592     15605     15603     15601     15592     15605
     15604     15601     15592     15605     15605     15608     15615     15611
     15606     15605     15608     15609     15606     15605     15608     15610
     15606     15605     15608     15615     15607     15605     15608     15609
     15607     15605     15608     15610     15607     15605     15608     15615
     15608     15615     15611     15612     15608     15615     15611     15613
     15608     15615     15611     15614     15609     15608     15615     15611
     15610     15608     15615     15611     15611     15614     15616     15617
     15611     15614     15616     15618     15611     15614     15616     15621
     15612     15611     15614     15616     15613     15611     15614     15616
     15614     15616     15621     15619     15614     15616     15621     15622
     15614     15616     15621     15623     15615     15611     15614     15616
     15616     15621     15619     15620     15616     15621     15619     15671
     15616     15621     15623     15624     15616     15621     15623     15625
     15616     15621     15623     15627     15617     15616     15621     15619
     15617     15616     15621     15622     15617     15616     15621     15623
     15618     15616     15621     15619     15618     15616     15621     15622
     15618     15616     15621     15623     15619     15621     15623     15624
     15619     15621     15623     15625     15619     15621     15623     15627
     15619     15671     15673     15674     15619     15671     15673     15675
     15619     15671     15673     15676     15620     15619     15621     15622
     15620     15619     15621     15623     15620     15619     15671     15672
     15620     15619     15671     15673     15621     15619     15671     15672
     15621     15619     15671     15673     15621     15623     15625     15626
     15621     15623     15627     15628     15621     15623     15627     15629
     15622     15621     15619     15671     15622     15621     15623     15624
     15622     15621     15623     15625     15622     15621     15623     15627
     15623     15621     15619     15671     15623     15627     15629     15630
     15623     15627     15629     15631     15624     15623     15625     15626
     15624     15623     15627     15628     15624     15623     15627     15629
     15625     15623     15627     15628     15625     15623     15627     15629
     15626     15625     15623     15627     15627     15629     15631     15632
     15627     15629     15631     15633     15627     15629     15631     15634
     15628     15627     15629     15630     15628     15627     15629     15631
     15629     15631     15634     15635     15629     15631     15634     15636
     15629     15631     15634     15637     15630     15629     15631     15632
     15630     15629     15631     15633     15630     15629     15631     15634
     15631     15634     15637     15638     15631     15634     15637     15639
     15631     15634     15637     15640     15632     15631     15634     15635
     15632     15631     15634     15636     15632     15631     15634     15637
     15633     15631     15634     15635     15633     15631     15634     15636
     15633     15631     15634     15637     15634     15637     15640     15641
     15634     15637     15640     15642     15634     15637     15640     15643
     15635     15634     15637     15638     15635     15634     15637     15639
     15635     15634     15637     15640     15636     15634     15637     15638
     15636     15634     15637     15639     15636     15634     15637     15640
     15637     15640     15643     15644     15637     15640     15643     15645
     15637     15640     15643     15646     15638     15637     15640     15641
     15638     15637     15640     15642     15638     15637     15640     15643
     15639     15637     15640     15641     15639     15637     15640     15642
     15639     15637     15640     15643     15640     15643     15646     15647
     15640     15643     15646     15648     15640     15643     15646     15649
     15641     15640     15643     15644     15641     15640     15643     15645
     15641     15640     15643     15646     15642     15640     15643     15644
     15642     15640     15643     15645     15642     15640     15643     15646
     15643     15646     15649     15650     15643     15646     15649     15651
     15643     15646     15649     15652     15644     15643     15646     15647
     15644     15643     15646     15648     15644     15643     15646     15649
     15645     15643     15646     15647     15645     15643     15646     15648
     15645     15643     15646     15649     15646     15649     15652     15653
     15646     15649     15652     15654     15646     15649     15652     15655
     15647     15646     15649     15650     15647     15646     15649     15651
     15647     15646     15649     15652     15648     15646     15649     15650
     15648     15646     15649     15651     15648     15646     15649     15652
     15649     15652     15655     15656     15649     15652     15655     15657
     15649     15652     15655     15658     15650     15649     15652     15653
     15650     15649     15652     15654     15650     15649     15652     15655
     15651     15649     15652     15653     15651     15649     15652     15654
     15651     15649     15652     15655     15652     15655     15658     15659
     15652     15655     15658     15660     15652     15655     15658     15661
     15653     15652     15655     15656     15653     15652     15655     15657
     15653     15652     15655     15658     15654     15652     15655     15656
     15654     15652     15655     15657     15654     15652     15655     15658
     15655     15658     15661     15662     15655     15658     15661     15663
     15655     15658     15661     15664     15656     15655     15658     15659
     15656     15655     15658     15660     15656     15655     15658     15661
     15657     15655     15658     15659     15657     15655     15658     15660
     15657     15655     15658     15661     15658     15661     15664     15665
     15658     15661     15664     15666     15658     15661     15664     15667
     15659     15658     15661     15662     15659     15658     15661     15663
     15659     15658     15661     15664     15660     15658     15661     15662
     15660     15658     15661     15663     15660     15658     15661     15664
     15661     15664     15667     15668     15661     15664     15667     15669
     15661     15664     15667     15670     15662     15661     15664     15665
     15662     15661     15664     15666     15662     15661     15664     15667
     15663     15661     15664     15665     15663     15661     15664     15666
     15663     15661     15664     15667     15665     15664     15667     15668
     15665     15664     15667     15669     15665     15664     15667     15670
     15666     15664     15667     15668     15666     15664     15667     15669
     15666     15664     15667     15670     15671     15673     15676     15677
     15671     15673     15676     15678     15671     15673     15676     15679
     15672     15671     15673     15674     15672     15671     15673     15675
     15672     15671     15673     15676     15673     15676     15679     15680
     15673     15676     15679     15681     15673     15676     15679     15682
     15674     15673     15676     15677     15674     15673     15676     15678
     15674     15673     15676     15679     15675     15673     15676     15677
     15675     15673     15676     15678     15675     15673     15676     15679
     15676     15679     15682     15683     15676     15679     15682     15684
     15676     15679     15682     15685     15677     15676     15679     15680
     15677     15676     15679     15681     15677     15676     15679     15682
     15678     15676     15679     15680     15678     15676     15679     15681
     15678     15676     15679     15682     15679     15682     15685     15686
     15679     15682     15685     15687     15679     15682     15685     15688
     15680     15679     15682     15683     15680     15679     15682     15684
     15680     15679     15682     15685     15681     15679     15682     15683
     15681     15679     15682     15684     15681     15679     15682     15685
     15682     15685     15688     15689     15682     15685     15688     15690
     15682     15685     15688     15691     15683     15682     15685     15686
     15683     15682     15685     15687     15683     15682     15685     15688
     15684     15682     15685     15686     15684     15682     15685     15687
     15684     15682     15685     15688     15685     15688     15691     15692
     15685     15688     15691     15693     15685     15688     15691     15694
     15686     15685     15688     15689     15686     15685     15688     15690
     15686     15685     15688     15691     15687     15685     15688     15689
     15687     15685     15688     15690     15687     15685     15688     15691
     15688     15691     15694     15695     15688     15691     15694     15696
     15689     15688     15691     15692     15689     15688     15691     15693
     15689     15688     15691     15694     15690     15688     15691     15692
     15690     15688     15691     15693     15690     15688     15691     15694
     15691     15694     15696     15697     15691     15694     15696     15698
     15692     15691     15694     15695     15692     15691     15694     15696
     15693     15691     15694     15695     15693     15691     15694     15696
     15694     15696     15698     15699     15694     15696     15698     15700
     15694     15696     15698     15701     15695     15694     15696     15697
     15695     15694     15696     15698     15696     15698     15701     15702
     15696     15698     15701     15703     15696     15698     15701     15704
     15697     15696     15698     15699     15697     15696     15698     15700
     15697     15696     15698     15701     15698     15701     15704     15705
     15698     15701     15704     15706     15698     15701     15704     15707
     15699     15698     15701     15702     15699     15698     15701     15703
     15699     15698     15701     15704     15700     15698     15701     15702
     15700     15698     15701     15703     15700     15698     15701     15704
     15701     15704     15707     15708     15701     15704     15707     15709
     15701     15704     15707     15710     15702     15701     15704     15705
     15702     15701     15704     15706     15702     15701     15704     15707
     15703     15701     15704     15705     15703     15701     15704     15706
     15703     15701     15704     15707     15704     15707     15710     15711
     15704     15707     15710     15712     15704     15707     15710     15713
     15705     15704     15707     15708     15705     15704     15707     15709
     15705     15704     15707     15710     15706     15704     15707     15708
     15706     15704     15707     15709     15706     15704     15707     15710
     15707     15710     15713     15714     15707     15710     15713     15715
     15707     15710     15713     15716     15708     15707     15710     15711
     15708     15707     15710     15712     15708     15707     15710     15713
     15709     15707     15710     15711     15709     15707     15710     15712
     15709     15707     15710     15713     15710     15713     15716     15717
     15710     15713     15716     15718     15710     15713     15716     15719
     15711     15710     15713     15714     15711     15710     15713     15715
     15711     15710     15713     15716     15712     15710     15713     15714
     15712     15710     15713     15715     15712     15710     15713     15716
     15713     15716     15719     15720     15713     15716     15719     15721
     15713     15716     15719     15722     15714     15713     15716     15717
     15714     15713     15716     15718     15714     15713     15716     15719
     15715     15713     15716     15717     15715     15713     15716     15718
     15715     15713     15716     15719     15717     15716     15719     15720
     15717     15716     15719     15721     15717     15716     15719     15722
     15718     15716     15719     15720     15718     15716     15719     15721
     15718     15716     15719     15722     15723     15727     15729     15730
     15723     15727     15729     15731     15723     15727     15732     15733
     15723     15727     15732     15734     15723     15727     15732     15738
     15724     15723     15727     15728     15724     15723     15727     15729
     15724     15723     15727     15732     15725     15723     15727     15728
     15725     15723     15727     15729     15725     15723     15727     15732
     15726     15723     15727     15728     15726     15723     15727     15729
     15726     15723     15727     15732     15727     15732     15738     15735
     15728     15727     15729     15730     15728     15727     15729     15731
     15728     15727     15732     15733     15728     15727     15732     15734
     15728     15727     15732     15738     15729     15727     15732     15733
     15729     15727     15732     15734     15729     15727     15732     15738
     15730     15729     15727     15732     15731     15729     15727     15732
     15732     15738     15735     15736     15732     15738     15735     15737
     15732     15738     15735     15739     15733     15732     15738     15735
     15734     15732     15738     15735     15735     15739     15740     15741
     15735     15739     15740     15742     15735     15739     15740     15743
     15736     15735     15739     15740     15737     15735     15739     15740
     15738     15735     15739     15740     15739     15740     15743     15744
     15739     15740     15743     15745     15739     15740     15743     15751
     15740     15743     15745     15746     15740     15743     15751     15752
     15740     15743     15751     15753     15740     15743     15751     15754
     15741     15740     15743     15744     15741     15740     15743     15745
     15741     15740     15743     15751     15742     15740     15743     15744
     15742     15740     15743     15745     15742     15740     15743     15751
     15743     15745     15746     15747     15743     15745     15746     15748
     15743     15751     15754     15755     15744     15743     15745     15746
     15744     15743     15751     15752     15744     15743     15751     15753
     15744     15743     15751     15754     15745     15743     15751     15752
     15745     15743     15751     15753     15745     15743     15751     15754
     15745     15746     15748     15749     15745     15746     15748     15750
     15745     15746     15748     15760     15746     15745     15743     15751
     15746     15748     15760     15761     15746     15748     15760     15762
     15746     15748     15760     15763     15747     15746     15748     15749
     15747     15746     15748     15750     15747     15746     15748     15760
     15748     15760     15763     15764     15748     15760     15763     15765
     15748     15760     15763     15766     15749     15748     15760     15761
     15749     15748     15760     15762     15749     15748     15760     15763
     15750     15748     15760     15761     15750     15748     15760     15762
     15750     15748     15760     15763     15751     15754     15755     15756
     15751     15754     15755     15757     15752     15751     15754     15755
     15753     15751     15754     15755     15754     15755     15757     15758
     15754     15755     15757     15759     15754     15755     15757     15807
     15755     15757     15807     15808     15755     15757     15807     15809
     15755     15757     15807     15810     15756     15755     15757     15758
     15756     15755     15757     15759     15756     15755     15757     15807
     15757     15807     15810     15811     15757     15807     15810     15812
     15757     15807     15810     15813     15758     15757     15807     15808
     15758     15757     15807     15809     15758     15757     15807     15810
     15759     15757     15807     15808     15759     15757     15807     15809
     15759     15757     15807     15810     15760     15763     15766     15767
     15760     15763     15766     15768     15761     15760     15763     15764
     15761     15760     15763     15765     15761     15760     15763     15766
     15762     15760     15763     15764     15762     15760     15763     15765
     15762     15760     15763     15766     15763     15766     15768     15769
     15763     15766     15768     15770     15764     15763     15766     15767
     15764     15763     15766     15768     15765     15763     15766     15767
     15765     15763     15766     15768     15766     15768     15770     15771
     15766     15768     15770     15772     15766     15768     15770     15773
     15767     15766     15768     15769     15767     15766     15768     15770
     15768     15770     15773     15774     15768     15770     15773     15775
     15769     15768     15770     15771     15769     15768     15770     15772
     15769     15768     15770     15773     15770     15773     15775     15776
     15770     15773     15775     15777     15771     15770     15773     15774
     15771     15770     15773     15775     15772     15770     15773     15774
     15772     15770     15773     15775     15773     15775     15777     15778
     15773     15775     15777     15779     15773     15775     15777     15780
     15774     15773     15775     15776     15774     15773     15775     15777
     15775     15777     15780     15781     15775     15777     15780     15782
     15776     15775     15777     15778     15776     15775     15777     15779
     15776     15775     15777     15780     15777     15780     15782     15783
     15777     15780     15782     15784     15778     15777     15780     15781
     15778     15777     15780     15782     15779     15777     15780     15781
     15779     15777     15780     15782     15780     15782     15784     15785
     15780     15782     15784     15786     15780     15782     15784     15787
     15781     15780     15782     15783     15781     15780     15782     15784
     15782     15784     15787     15788     15782     15784     15787     15789
     15783     15782     15784     15785     15783     15782     15784     15786
     15783     15782     15784     15787     15784     15787     15789     15790
     15784     15787     15789     15791     15785     15784     15787     15788
     15785     15784     15787     15789     15786     15784     15787     15788
     15786     15784     15787     15789     15787     15789     15791     15792
     15787     15789     15791     15793     15787     15789     15791     15794
     15788     15787     15789     15790     15788     15787     15789     15791
     15789     15791     15794     15795     15789     15791     15794     15796
     15789     15791     15794     15797     15790     15789     15791     15792
     15790     15789     15791     15793     15790     15789     15791     15794
     15791     15794     15797     15798     15791     15794     15797     15799
     15791     15794     15797     15800     15792     15791     15794     15795
     15792     15791     15794     15796     15792     15791     15794     15797
     15793     15791     15794     15795     15793     15791     15794     15796
     15793     15791     15794     15797     15794     15797     15800     15801
     15794     15797     15800     15802     15794     15797     15800     15803
     15795     15794     15797     15798     15795     15794     15797     15799
     15795     15794     15797     15800     15796     15794     15797     15798
     15796     15794     15797     15799     15796     15794     15797     15800
     15797     15800     15803     15804     15797     15800     15803     15805
     15797     15800     15803     15806     15798     15797     15800     15801
     15798     15797     15800     15802     15798     15797     15800     15803
     15799     15797     15800     15801     15799     15797     15800     15802
     15799     15797     15800     15803     15801     15800     15803     15804
     15801     15800     15803     15805     15801     15800     15803     15806
     15802     15800     15803     15804     15802     15800     15803     15805
     15802     15800     15803     15806     15807     15810     15813     15814
     15807     15810     15813     15815     15807     15810     15813     15816
     15808     15807     15810     15811     15808     15807     15810     15812
     15808     15807     15810     15813     15809     15807     15810     15811
     15809     15807     15810     15812     15809     15807     15810     15813
     15810     15813     15816     15817     15810     15813     15816     15818
     15810     15813     15816     15819     15811     15810     15813     15814
     15811     15810     15813     15815     15811     15810     15813     15816
     15812     15810     15813     15814     15812     15810     15813     15815
     15812     15810     15813     15816     15813     15816     15819     15820
     15813     15816     15819     15821     15813     15816     15819     15822
     15814     15813     15816     15817     15814     15813     15816     15818
     15814     15813     15816     15819     15815     15813     15816     15817
     15815     15813     15816     15818     15815     15813     15816     15819
     15816     15819     15822     15823     15816     15819     15822     15824
     15816     15819     15822     15825     15817     15816     15819     15820
     15817     15816     15819     15821     15817     15816     15819     15822
     15818     15816     15819     15820     15818     15816     15819     15821
     15818     15816     15819     15822     15819     15822     15825     15826
     15819     15822     15825     15827     15819     15822     15825     15828
     15820     15819     15822     15823     15820     15819     15822     15824
     15820     15819     15822     15825     15821     15819     15822     15823
     15821     15819     15822     15824     15821     15819     15822     15825
     15822     15825     15828     15829     15822     15825     15828     15830
     15822     15825     15828     15831     15823     15822     15825     15826
     15823     15822     15825     15827     15823     15822     15825     15828
     15824     15822     15825     15826     15824     15822     15825     15827
     15824     15822     15825     15828     15825     15828     15831     15832
     15825     15828     15831     15833     15825     15828     15831     15834
     15826     15825     15828     15829     15826     15825     15828     15830
     15826     15825     15828     15831     15827     15825     15828     15829
     15827     15825     15828     15830     15827     15825     15828     15831
     15828     15831     15834     15835     15828     15831     15834     15836
     15828     15831     15834     15837     15829     15828     15831     15832
     15829     15828     15831     15833     15829     15828     15831     15834
     15830     15828     15831     15832     15830     15828     15831     15833
     15830     15828     15831     15834     15831     15834     15837     15838
     15831     15834     15837     15839     15831     15834     15837     15840
     15832     15831     15834     15835     15832     15831     15834     15836
     15832     15831     15834     15837     15833     15831     15834     15835
     15833     15831     15834     15836     15833     15831     15834     15837
     15834     15837     15840     15841     15834     15837     15840     15842
     15834     15837     15840     15843     15835     15834     15837     15838
     15835     15834     15837     15839     15835     15834     15837     15840
     15836     15834     15837     15838     15836     15834     15837     15839
     15836     15834     15837     15840     15837     15840     15843     15844
     15837     15840     15843     15845     15837     15840     15843     15846
     15838     15837     15840     15841     15838     15837     15840     15842
     15838     15837     15840     15843     15839     15837     15840     15841
     15839     15837     15840     15842     15839     15837     15840     15843
     15840     15843     15846     15847     15840     15843     15846     15848
     15840     15843     15846     15849     15841     15840     15843     15844
     15841     15840     15843     15845     15841     15840     15843     15846
     15842     15840     15843     15844     15842     15840     15843     15845
     15842     15840     15843     15846     15843     15846     15849     15850
     15843     15846     15849     15851     15843     15846     15849     15852
     15844     15843     15846     15847     15844     15843     15846     15848
     15844     15843     15846     15849     15845     15843     15846     15847
     15845     15843     15846     15848     15845     15843     15846     15849
     15846     15849     15852     15853     15846     15849     15852     15854
     15846     15849     15852     15855     15847     15846     15849     15850
     15847     15846     15849     15851     15847     15846     15849     15852
     15848     15846     15849     15850     15848     15846     15849     15851
     15848     15846     15849     15852     15850     15849     15852     15853
     15850     15849     15852     15854     15850     15849     15852     15855
     15851     15849     15852     15853     15851     15849     15852     15854
     15851     15849     15852     15855     15856     15860     15863     15864
     15856     15860     15863     15865     15856     15860     15863     15869
     15857     15856     15860     15861     15857     15856     15860     15862
     15857     15856     15860     15863     15858     15856     15860     15861
     15858     15856     15860     15862     15858     15856     15860     15863
     15859     15856     15860     15861     15859     15856     15860     15862
     15859     15856     15860     15863     15860     15863     15869     15866
     15861     15860     15863     15864     15861     15860     15863     15865
     15861     15860     15863     15869     15862     15860     15863     15864
     15862     15860     15863     15865     15862     15860     15863     15869
     15863     15869     15866     15867     15863     15869     15866     15868
     15863     15869     15866     15870     15864     15863     15869     15866
     15865     15863     15869     15866     15866     15870     15871     15872
     15866     15870     15871     15873     15866     15870     15871     15874
     15867     15866     15870     15871     15868     15866     15870     15871
     15869     15866     15870     15871     15870     15871     15874     15875
     15870     15871     15874     15876     15870     15871     15874     15882
     15871     15874     15876     15877     15871     15874     15882     15883
     15871     15874     15882     15884     15871     15874     15882     15885
     15872     15871     15874     15875     15872     15871     15874     15876
     15872     15871     15874     15882     15873     15871     15874     15875
     15873     15871     15874     15876     15873     15871     15874     15882
     15874     15876     15877     15878     15874     15876     15877     15879
     15874     15882     15885     15886     15875     15874     15876     15877
     15875     15874     15882     15883     15875     15874     15882     15884
     15875     15874     15882     15885     15876     15874     15882     15883
     15876     15874     15882     15884     15876     15874     15882     15885
     15876     15877     15879     15880     15876     15877     15879     15881
     15876     15877     15879     15891     15877     15876     15874     15882
     15877     15879     15891     15892     15877     15879     15891     15893
     15877     15879     15891     15894     15878     15877     15879     15880
     15878     15877     15879     15881     15878     15877     15879     15891
     15879     15891     15894     15895     15879     15891     15894     15896
     15879     15891     15894     15897     15880     15879     15891     15892
     15880     15879     15891     15893     15880     15879     15891     15894
     15881     15879     15891     15892     15881     15879     15891     15893
     15881     15879     15891     15894     15882     15885     15886     15887
     15882     15885     15886     15888     15883     15882     15885     15886
     15884     15882     15885     15886     15885     15886     15888     15889
     15885     15886     15888     15890     15885     15886     15888     15938
     15886     15888     15938     15939     15886     15888     15938     15940
     15886     15888     15938     15941     15887     15886     15888     15889
     15887     15886     15888     15890     15887     15886     15888     15938
     15888     15938     15941     15942     15888     15938     15941     15943
     15888     15938     15941     15944     15889     15888     15938     15939
     15889     15888     15938     15940     15889     15888     15938     15941
     15890     15888     15938     15939     15890     15888     15938     15940
     15890     15888     15938     15941     15891     15894     15897     15898
     15891     15894     15897     15899     15892     15891     15894     15895
     15892     15891     15894     15896     15892     15891     15894     15897
     15893     15891     15894     15895     15893     15891     15894     15896
     15893     15891     15894     15897     15894     15897     15899     15900
     15894     15897     15899     15901     15895     15894     15897     15898
     15895     15894     15897     15899     15896     15894     15897     15898
     15896     15894     15897     15899     15897     15899     15901     15902
     15897     15899     15901     15903     15897     15899     15901     15904
     15898     15897     15899     15900     15898     15897     15899     15901
     15899     15901     15904     15905     15899     15901     15904     15906
     15900     15899     15901     15902     15900     15899     15901     15903
     15900     15899     15901     15904     15901     15904     15906     15907
     15901     15904     15906     15908     15902     15901     15904     15905
     15902     15901     15904     15906     15903     15901     15904     15905
     15903     15901     15904     15906     15904     15906     15908     15909
     15904     15906     15908     15910     15904     15906     15908     15911
     15905     15904     15906     15907     15905     15904     15906     15908
     15906     15908     15911     15912     15906     15908     15911     15913
     15907     15906     15908     15909     15907     15906     15908     15910
     15907     15906     15908     15911     15908     15911     15913     15914
     15908     15911     15913     15915     15909     15908     15911     15912
     15909     15908     15911     15913     15910     15908     15911     15912
     15910     15908     15911     15913     15911     15913     15915     15916
     15911     15913     15915     15917     15911     15913     15915     15918
     15912     15911     15913     15914     15912     15911     15913     15915
     15913     15915     15918     15919     15913     15915     15918     15920
     15914     15913     15915     15916     15914     15913     15915     15917
     15914     15913     15915     15918     15915     15918     15920     15921
     15915     15918     15920     15922     15916     15915     15918     15919
     15916     15915     15918     15920     15917     15915     15918     15919
     15917     15915     15918     15920     15918     15920     15922     15923
     15918     15920     15922     15924     15918     15920     15922     15925
     15919     15918     15920     15921     15919     15918     15920     15922
     15920     15922     15925     15926     15920     15922     15925     15927
     15920     15922     15925     15928     15921     15920     15922     15923
     15921     15920     15922     15924     15921     15920     15922     15925
     15922     15925     15928     15929     15922     15925     15928     15930
     15922     15925     15928     15931     15923     15922     15925     15926
     15923     15922     15925     15927     15923     15922     15925     15928
     15924     15922     15925     15926     15924     15922     15925     15927
     15924     15922     15925     15928     15925     15928     15931     15932
     15925     15928     15931     15933     15925     15928     15931     15934
     15926     15925     15928     15929     15926     15925     15928     15930
     15926     15925     15928     15931     15927     15925     15928     15929
     15927     15925     15928     15930     15927     15925     15928     15931
     15928     15931     15934     15935     15928     15931     15934     15936
     15928     15931     15934     15937     15929     15928     15931     15932
     15929     15928     15931     15933     15929     15928     15931     15934
     15930     15928     15931     15932     15930     15928     15931     15933
     15930     15928     15931     15934     15932     15931     15934     15935
     15932     15931     15934     15936     15932     15931     15934     15937
     15933     15931     15934     15935     15933     15931     15934     15936
     15933     15931     15934     15937     15938     15941     15944     15945
     15938     15941     15944     15946     15938     15941     15944     15947
     15939     15938     15941     15942     15939     15938     15941     15943
     15939     15938     15941     15944     15940     15938     15941     15942
     15940     15938     15941     15943     15940     15938     15941     15944
     15941     15944     15947     15948     15941     15944     15947     15949
     15941     15944     15947     15950     15942     15941     15944     15945
     15942     15941     15944     15946     15942     15941     15944     15947
     15943     15941     15944     15945     15943     15941     15944     15946
     15943     15941     15944     15947     15944     15947     15950     15951
     15944     15947     15950     15952     15944     15947     15950     15953
     15945     15944     15947     15948     15945     15944     15947     15949
     15945     15944     15947     15950     15946     15944     15947     15948
     15946     15944     15947     15949     15946     15944     15947     15950
     15947     15950     15953     15954     15947     15950     15953     15955
     15947     15950     15953     15956     15948     15947     15950     15951
     15948     15947     15950     15952     15948     15947     15950     15953
     15949     15947     15950     15951     15949     15947     15950     15952
     15949     15947     15950     15953     15950     15953     15956     15957
     15950     15953     15956     15958     15950     15953     15956     15959
     15951     15950     15953     15954     15951     15950     15953     15955
     15951     15950     15953     15956     15952     15950     15953     15954
     15952     15950     15953     15955     15952     15950     15953     15956
     15953     15956     15959     15960     15953     15956     15959     15961
     15953     15956     15959     15962     15954     15953     15956     15957
     15954     15953     15956     15958     15954     15953     15956     15959
     15955     15953     15956     15957     15955     15953     15956     15958
     15955     15953     15956     15959     15956     15959     15962     15963
     15956     15959     15962     15964     15956     15959     15962     15965
     15957     15956     15959     15960     15957     15956     15959     15961
     15957     15956     15959     15962     15958     15956     15959     15960
     15958     15956     15959     15961     15958     15956     15959     15962
     15959     15962     15965     15966     15959     15962     15965     15967
     15959     15962     15965     15968     15960     15959     15962     15963
     15960     15959     15962     15964     15960     15959     15962     15965
     15961     15959     15962     15963     15961     15959     15962     15964
     15961     15959     15962     15965     15962     15965     15968     15969
     15962     15965     15968     15970     15962     15965     15968     15971
     15963     15962     15965     15966     15963     15962     15965     15967
     15963     15962     15965     15968     15964     15962     15965     15966
     15964     15962     15965     15967     15964     15962     15965     15968
     15965     15968     15971     15972     15965     15968     15971     15973
     15965     15968     15971     15974     15966     15965     15968     15969
     15966     15965     15968     15970     15966     15965     15968     15971
     15967     15965     15968     15969     15967     15965     15968     15970
     15967     15965     15968     15971     15968     15971     15974     15975
     15968     15971     15974     15976     15968     15971     15974     15977
     15969     15968     15971     15972     15969     15968     15971     15973
     15969     15968     15971     15974     15970     15968     15971     15972
     15970     15968     15971     15973     15970     15968     15971     15974
     15971     15974     15977     15978     15971     15974     15977     15979
     15971     15974     15977     15980     15972     15971     15974     15975
     15972     15971     15974     15976     15972     15971     15974     15977
     15973     15971     15974     15975     15973     15971     15974     15976
     15973     15971     15974     15977     15974     15977     15980     15981
     15974     15977     15980     15982     15974     15977     15980     15983
     15975     15974     15977     15978     15975     15974     15977     15979
     15975     15974     15977     15980     15976     15974     15977     15978
     15976     15974     15977     15979     15976     15974     15977     15980
     15977     15980     15983     15984     15977     15980     15983     15985
     15977     15980     15983     15986     15978     15977     15980     15981
     15978     15977     15980     15982     15978     15977     15980     15983
     15979     15977     15980     15981     15979     15977     15980     15982
     15979     15977     15980     15983     15981     15980     15983     15984
     15981     15980     15983     15985     15981     15980     15983     15986
     15982     15980     15983     15984     15982     15980     15983     15985
     15982     15980     15983     15986     15987     15991     15994     15995
     15987     15991     15994     16025     15987     16033     16030     16025
     15987     16033     16030     16031     15987     16033     16030     16032
     15988     15987     15989     15990     15988     15987     15991     15992
     15988     15987     15991     15993     15988     15987     15991     15994
     15988     15987     16033     16030     15988     15987     16033     16034
     15988     15987     16033     16035     15989     15987     15991     15992
     15989     15987     15991     15993     15989     15987     15991     15994
     15989     15987     16033     16030     15989     15987     16033     16034
     15989     15987     16033     16035     15990     15989     15987     15991
     15990     15989     15987     16033     15991     15987     16033     16030
     15991     15987     16033     16034     15991     15987     16033     16035
     15991     15994     15995     15996     15991     15994     15995     15997
     15991     15994     16025     16023     15991     15994     16025     16026
     15991     15994     16025     16030     15992     15991     15987     16033
     15992     15991     15994     15995     15992     15991     15994     16025
     15993     15991     15987     16033     15993     15991     15994     15995
     15993     15991     15994     16025     15994     15991     15987     16033
     15994     15995     15997     15998     15994     15995     15997     15999
     15994     15995     15997     16000     15994     16025     16023     16000
     15994     16025     16023     16020     15994     16025     16023     16024
     15994     16025     16026     16027     15994     16025     16026     16028
     15994     16025     16026     16029     15994     16025     16030     16031
     15994     16025     16030     16032     15994     16025     16030     16033
     15995     15994     16025     16023     15995     15994     16025     16026
     15995     15994     16025     16030     15995     15997     16000     16001
     15995     15997     16000     16002     15995     15997     16000     16023
     15996     15995     15994     16025     15996     15995     15997     15998
     15996     15995     15997     15999     15996     15995     15997     16000
     15997     15995     15994     16025     15997     16000     16002     16003
     15997     16000     16002     16004     15997     16000     16002     16012
     15997     16000     16023     16020     15997     16000     16023     16024
     15997     16000     16023     16025     15998     15997     16000     16001
     15998     15997     16000     16002     15998     15997     16000     16023
     15999     15997     16000     16001     15999     15997     16000     16002
     15999     15997     16000     16023     16000     16002     16004     16005
     16000     16002     16004     16006     16000     16002     16004     16007
     16000     16002     16012     16010     16000     16002     16012     16013
     16000     16002     16012     16017     16000     16023     16020     16017
     16000     16023     16020     16021     16000     16023     16020     16022
     16000     16023     16025     16026     16000     16023     16025     16030
     16001     16000     16002     16003     16001     16000     16002     16004
     16001     16000     16002     16012     16001     16000     16023     16020
     16001     16000     16023     16024     16001     16000     16023     16025
     16002     16000     16023     16020     16002     16000     16023     16024
     16002     16000     16023     16025     16002     16004     16007     16008
     16002     16004     16007     16009     16002     16004     16007     16010
     16002     16012     16010     16007     16002     16012     16010     16011
     16002     16012     16010     16036     16002     16012     16013     16014
     16002     16012     16013     16015     16002     16012     16013     16016
     16002     16012     16017     16018     16002     16012     16017     16019
     16002     16012     16017     16020     16003     16002     16000     16023
     16003     16002     16004     16005     16003     16002     16004     16006
     16003     16002     16004     16007     16003     16002     16012     16010
     16003     16002     16012     16013     16003     16002     16012     16017
     16004     16002     16000     16023     16004     16002     16012     16010
     16004     16002     16012     16013     16004     16002     16012     16017
     16004     16007     16010     16011     16004     16007     16010     16012
     16004     16007     16010     16036     16005     16004     16002     16012
     16005     16004     16007     16008     16005     16004     16007     16009
     16005     16004     16007     16010     16006     16004     16002     16012
     16006     16004     16007     16008     16006     16004     16007     16009
     16006     16004     16007     16010     16007     16004     16002     16012
     16007     16010     16012     16013     16007     16010     16012     16017
     16007     16010     16036     16037     16007     16010     16036     16038
     16007     16010     16036     16042     16008     16007     16010     16011
     16008     16007     16010     16012     16008     16007     16010     16036
     16009     16007     16010     16011     16009     16007     16010     16012
     16009     16007     16010     16036     16010     16012     16013     16014
     16010     16012     16013     16015     16010     16012     16013     16016
     16010     16012     16017     16018     16010     16012     16017     16019
     16010     16012     16017     16020     16010     16036     16038     16039
     16010     16036     16038     16040     16010     16036     16038     16041
     16010     16036     16042     16043     16010     16036     16042     16044
     16010     16036     16042     16045     16011     16010     16012     16013
     16011     16010     16012     16017     16011     16010     16036     16037
     16011     16010     16036     16038     16011     16010     16036     16042
     16012     16002     16000     16023     16012     16010     16036     16037
     16012     16010     16036     16038     16012     16010     16036     16042
     16012     16017     16020     16021     16012     16017     16020     16022
     16012     16017     16020     16023     16013     16012     16010     16036
     16013     16012     16017     16018     16013     16012     16017     16019
     16013     16012     16017     16020     16014     16013     16012     16017
     16015     16013     16012     16017     16016     16013     16012     16017
     16017     16012     16010     16036     16017     16020     16023     16024
     16017     16020     16023     16025     16018     16017     16020     16021
     16018     16017     16020     16022     16018     16017     16020     16023
     16019     16017     16020     16021     16019     16017     16020     16022
     16019     16017     16020     16023     16020     16023     16025     16026
     16020     16023     16025     16030     16021     16020     16023     16024
     16021     16020     16023     16025     16022     16020     16023     16024
     16022     16020     16023     16025     16023     16025     16026     16027
     16023     16025     16026     16028     16023     16025     16026     16029
     16023     16025     16030     16031     16023     16025     16030     16032
     16023     16025     16030     16033     16024     16023     16025     16026
     16024     16023     16025     16030     16025     16030     16033     16034
     16025     16030     16033     16035     16026     16025     16030     16031
     16026     16025     16030     16032     16026     16025     16030     16033
     16027     16026     16025     16030     16028     16026     16025     16030
     16029     16026     16025     16030     16031     16030     16033     16034
     16031     16030     16033     16035     16032     16030     16033     16034
     16032     16030     16033     16035     16036     16042     16045     16046
     16036     16042     16045     16047     16036     16042     16045     16048
     16037     16036     16038     16039     16037     16036     16038     16040
     16037     16036     16038     16041     16037     16036     16042     16043
     16037     16036     16042     16044     16037     16036     16042     16045
     16038     16036     16042     16043     16038     16036     16042     16044
     16038     16036     16042     16045     16039     16038     16036     16042
     16040     16038     16036     16042     16041     16038     16036     16042
     16042     16045     16048     16049     16042     16045     16048     16050
     16042     16045     16048     16051     16043     16042     16045     16046
     16043     16042     16045     16047     16043     16042     16045     16048
     16044     16042     16045     16046     16044     16042     16045     16047
     16044     16042     16045     16048     16045     16048     16051     16052
     16045     16048     16051     16053     16045     16048     16051     16057
     16046     16045     16048     16049     16046     16045     16048     16050
     16046     16045     16048     16051     16047     16045     16048     16049
     16047     16045     16048     16050     16047     16045     16048     16051
     16048     16051     16053     16054     16048     16051     16053     16055
     16048     16051     16053     16056     16048     16051     16057     16058
     16048     16051     16057     16059     16048     16051     16057     16060
     16049     16048     16051     16052     16049     16048     16051     16053
     16049     16048     16051     16057     16050     16048     16051     16052
     16050     16048     16051     16053     16050     16048     16051     16057
     16052     16051     16053     16054     16052     16051     16053     16055
     16052     16051     16053     16056     16052     16051     16057     16058
     16052     16051     16057     16059     16052     16051     16057     16060
     16053     16051     16057     16058     16053     16051     16057     16059
     16053     16051     16057     16060     16054     16053     16051     16057
     16055     16053     16051     16057     16056     16053     16051     16057
     16061     16074     16077     16078     16061     16074     16077     16079
     16061     16074     16077     16084     16062     16061     16066     16067
     16062     16061     16066     16068     16062     16061     16066     16069
     16062     16061     16070     16071     16062     16061     16070     16072
     16062     16061     16070     16073     16062     16061     16074     16075
     16062     16061     16074     16076     16062     16061     16074     16077
     16063     16062     16061     16066     16063     16062     16061     16070
     16063     16062     16061     16074     16064     16062     16061     16066
     16064     16062     16061     16070     16064     16062     16061     16074
     16065     16062     16061     16066     16065     16062     16061     16070
     16065     16062     16061     16074     16066     16061     16070     16071
     16066     16061     16070     16072     16066     16061     16070     16073
     16066     16061     16074     16075     16066     16061     16074     16076
     16066     16061     16074     16077     16067     16066     16061     16070
     16067     16066     16061     16074     16068     16066     16061     16070
     16068     16066     16061     16074     16069     16066     16061     16070
     16069     16066     16061     16074     16070     16061     16074     16075
     16070     16061     16074     16076     16070     16061     16074     16077
     16071     16070     16061     16074     16072     16070     16061     16074
     16073     16070     16061     16074     16074     16077     16084     16080
     16075     16074     16077     16078     16075     16074     16077     16079
     16075     16074     16077     16084     16076     16074     16077     16078
     16076     16074     16077     16079     16076     16074     16077     16084
     16077     16084     16080     16081     16077     16084     16080     16082
     16077     16084     16080     16083     16078     16077     16084     16080
     16079     16077     16084     16080     16080     16083     16085     16086
     16080     16083     16085     16087     16080     16083     16085     16090
     16081     16080     16083     16085     16082     16080     16083     16085
     16083     16085     16090     16088     16083     16085     16090     16091
     16083     16085     16090     16092     16084     16080     16083     16085
     16085     16090     16088     16089     16085     16090     16088     16140
     16085     16090     16092     16093     16085     16090     16092     16094
     16085     16090     16092     16096     16086     16085     16090     16088
     16086     16085     16090     16091     16086     16085     16090     16092
     16087     16085     16090     16088     16087     16085     16090     16091
     16087     16085     16090     16092     16088     16090     16092     16093
     16088     16090     16092     16094     16088     16090     16092     16096
     16088     16140     16142     16143     16088     16140     16142     16144
     16088     16140     16142     16145     16089     16088     16090     16091
     16089     16088     16090     16092     16089     16088     16140     16141
     16089     16088     16140     16142     16090     16088     16140     16141
     16090     16088     16140     16142     16090     16092     16094     16095
     16090     16092     16096     16097     16090     16092     16096     16098
     16091     16090     16088     16140     16091     16090     16092     16093
     16091     16090     16092     16094     16091     16090     16092     16096
     16092     16090     16088     16140     16092     16096     16098     16099
     16092     16096     16098     16100     16093     16092     16094     16095
     16093     16092     16096     16097     16093     16092     16096     16098
     16094     16092     16096     16097     16094     16092     16096     16098
     16095     16094     16092     16096     16096     16098     16100     16101
     16096     16098     16100     16102     16096     16098     16100     16103
     16097     16096     16098     16099     16097     16096     16098     16100
     16098     16100     16103     16104     16098     16100     16103     16105
     16098     16100     16103     16106     16099     16098     16100     16101
     16099     16098     16100     16102     16099     16098     16100     16103
     16100     16103     16106     16107     16100     16103     16106     16108
     16100     16103     16106     16109     16101     16100     16103     16104
     16101     16100     16103     16105     16101     16100     16103     16106
     16102     16100     16103     16104     16102     16100     16103     16105
     16102     16100     16103     16106     16103     16106     16109     16110
     16103     16106     16109     16111     16103     16106     16109     16112
     16104     16103     16106     16107     16104     16103     16106     16108
     16104     16103     16106     16109     16105     16103     16106     16107
     16105     16103     16106     16108     16105     16103     16106     16109
     16106     16109     16112     16113     16106     16109     16112     16114
     16106     16109     16112     16115     16107     16106     16109     16110
     16107     16106     16109     16111     16107     16106     16109     16112
     16108     16106     16109     16110     16108     16106     16109     16111
     16108     16106     16109     16112     16109     16112     16115     16116
     16109     16112     16115     16117     16109     16112     16115     16118
     16110     16109     16112     16113     16110     16109     16112     16114
     16110     16109     16112     16115     16111     16109     16112     16113
     16111     16109     16112     16114     16111     16109     16112     16115
     16112     16115     16118     16119     16112     16115     16118     16120
     16112     16115     16118     16121     16113     16112     16115     16116
     16113     16112     16115     16117     16113     16112     16115     16118
     16114     16112     16115     16116     16114     16112     16115     16117
     16114     16112     16115     16118     16115     16118     16121     16122
     16115     16118     16121     16123     16115     16118     16121     16124
     16116     16115     16118     16119     16116     16115     16118     16120
     16116     16115     16118     16121     16117     16115     16118     16119
     16117     16115     16118     16120     16117     16115     16118     16121
     16118     16121     16124     16125     16118     16121     16124     16126
     16118     16121     16124     16127     16119     16118     16121     16122
     16119     16118     16121     16123     16119     16118     16121     16124
     16120     16118     16121     16122     16120     16118     16121     16123
     16120     16118     16121     16124     16121     16124     16127     16128
     16121     16124     16127     16129     16121     16124     16127     16130
     16122     16121     16124     16125     16122     16121     16124     16126
     16122     16121     16124     16127     16123     16121     16124     16125
     16123     16121     16124     16126     16123     16121     16124     16127
     16124     16127     16130     16131     16124     16127     16130     16132
     16124     16127     16130     16133     16125     16124     16127     16128
     16125     16124     16127     16129     16125     16124     16127     16130
     16126     16124     16127     16128     16126     16124     16127     16129
     16126     16124     16127     16130     16127     16130     16133     16134
     16127     16130     16133     16135     16127     16130     16133     16136
     16128     16127     16130     16131     16128     16127     16130     16132
     16128     16127     16130     16133     16129     16127     16130     16131
     16129     16127     16130     16132     16129     16127     16130     16133
     16130     16133     16136     16137     16130     16133     16136     16138
     16130     16133     16136     16139     16131     16130     16133     16134
     16131     16130     16133     16135     16131     16130     16133     16136
     16132     16130     16133     16134     16132     16130     16133     16135
     16132     16130     16133     16136     16134     16133     16136     16137
     16134     16133     16136     16138     16134     16133     16136     16139
     16135     16133     16136     16137     16135     16133     16136     16138
     16135     16133     16136     16139     16140     16142     16145     16146
     16140     16142     16145     16147     16140     16142     16145     16148
     16141     16140     16142     16143     16141     16140     16142     16144
     16141     16140     16142     16145     16142     16145     16148     16149
     16142     16145     16148     16150     16142     16145     16148     16151
     16143     16142     16145     16146     16143     16142     16145     16147
     16143     16142     16145     16148     16144     16142     16145     16146
     16144     16142     16145     16147     16144     16142     16145     16148
     16145     16148     16151     16152     16145     16148     16151     16153
     16145     16148     16151     16154     16146     16145     16148     16149
     16146     16145     16148     16150     16146     16145     16148     16151
     16147     16145     16148     16149     16147     16145     16148     16150
     16147     16145     16148     16151     16148     16151     16154     16155
     16148     16151     16154     16156     16148     16151     16154     16157
     16149     16148     16151     16152     16149     16148     16151     16153
     16149     16148     16151     16154     16150     16148     16151     16152
     16150     16148     16151     16153     16150     16148     16151     16154
     16151     16154     16157     16158     16151     16154     16157     16159
     16151     16154     16157     16160     16152     16151     16154     16155
     16152     16151     16154     16156     16152     16151     16154     16157
     16153     16151     16154     16155     16153     16151     16154     16156
     16153     16151     16154     16157     16154     16157     16160     16161
     16154     16157     16160     16162     16154     16157     16160     16163
     16155     16154     16157     16158     16155     16154     16157     16159
     16155     16154     16157     16160     16156     16154     16157     16158
     16156     16154     16157     16159     16156     16154     16157     16160
     16157     16160     16163     16164     16157     16160     16163     16165
     16158     16157     16160     16161     16158     16157     16160     16162
     16158     16157     16160     16163     16159     16157     16160     16161
     16159     16157     16160     16162     16159     16157     16160     16163
     16160     16163     16165     16166     16160     16163     16165     16167
     16161     16160     16163     16164     16161     16160     16163     16165
     16162     16160     16163     16164     16162     16160     16163     16165
     16163     16165     16167     16168     16163     16165     16167     16169
     16163     16165     16167     16170     16164     16163     16165     16166
     16164     16163     16165     16167     16165     16167     16170     16171
     16165     16167     16170     16172     16165     16167     16170     16173
     16166     16165     16167     16168     16166     16165     16167     16169
     16166     16165     16167     16170     16167     16170     16173     16174
     16167     16170     16173     16175     16167     16170     16173     16176
     16168     16167     16170     16171     16168     16167     16170     16172
     16168     16167     16170     16173     16169     16167     16170     16171
     16169     16167     16170     16172     16169     16167     16170     16173
     16170     16173     16176     16177     16170     16173     16176     16178
     16170     16173     16176     16179     16171     16170     16173     16174
     16171     16170     16173     16175     16171     16170     16173     16176
     16172     16170     16173     16174     16172     16170     16173     16175
     16172     16170     16173     16176     16173     16176     16179     16180
     16173     16176     16179     16181     16173     16176     16179     16182
     16174     16173     16176     16177     16174     16173     16176     16178
     16174     16173     16176     16179     16175     16173     16176     16177
     16175     16173     16176     16178     16175     16173     16176     16179
     16176     16179     16182     16183     16176     16179     16182     16184
     16176     16179     16182     16185     16177     16176     16179     16180
     16177     16176     16179     16181     16177     16176     16179     16182
     16178     16176     16179     16180     16178     16176     16179     16181
     16178     16176     16179     16182     16179     16182     16185     16186
     16179     16182     16185     16187     16179     16182     16185     16188
     16180     16179     16182     16183     16180     16179     16182     16184
     16180     16179     16182     16185     16181     16179     16182     16183
     16181     16179     16182     16184     16181     16179     16182     16185
     16182     16185     16188     16189     16182     16185     16188     16190
     16182     16185     16188     16191     16183     16182     16185     16186
     16183     16182     16185     16187     16183     16182     16185     16188
     16184     16182     16185     16186     16184     16182     16185     16187
     16184     16182     16185     16188     16186     16185     16188     16189
     16186     16185     16188     16190     16186     16185     16188     16191
     16187     16185     16188     16189     16187     16185     16188     16190
     16187     16185     16188     16191     16192     16196     16199     16200
     16192     16196     16199     16201     16192     16196     16199     16205
     16193     16192     16196     16197     16193     16192     16196     16198
     16193     16192     16196     16199     16194     16192     16196     16197
     16194     16192     16196     16198     16194     16192     16196     16199
     16195     16192     16196     16197     16195     16192     16196     16198
     16195     16192     16196     16199     16196     16199     16205     16202
     16197     16196     16199     16200     16197     16196     16199     16201
     16197     16196     16199     16205     16198     16196     16199     16200
     16198     16196     16199     16201     16198     16196     16199     16205
     16199     16205     16202     16203     16199     16205     16202     16204
     16199     16205     16202     16206     16200     16199     16205     16202
     16201     16199     16205     16202     16202     16206     16207     16208
     16202     16206     16207     16209     16202     16206     16207     16210
     16203     16202     16206     16207     16204     16202     16206     16207
     16205     16202     16206     16207     16206     16207     16210     16211
     16206     16207     16210     16212     16206     16207     16210     16218
     16207     16210     16212     16213     16207     16210     16218     16219
     16207     16210     16218     16220     16207     16210     16218     16221
     16208     16207     16210     16211     16208     16207     16210     16212
     16208     16207     16210     16218     16209     16207     16210     16211
     16209     16207     16210     16212     16209     16207     16210     16218
     16210     16212     16213     16214     16210     16212     16213     16215
     16210     16218     16221     16222     16211     16210     16212     16213
     16211     16210     16218     16219     16211     16210     16218     16220
     16211     16210     16218     16221     16212     16210     16218     16219
     16212     16210     16218     16220     16212     16210     16218     16221
     16212     16213     16215     16216     16212     16213     16215     16217
     16212     16213     16215     16227     16213     16212     16210     16218
     16213     16215     16227     16228     16213     16215     16227     16229
     16213     16215     16227     16230     16214     16213     16215     16216
     16214     16213     16215     16217     16214     16213     16215     16227
     16215     16227     16230     16231     16215     16227     16230     16232
     16215     16227     16230     16233     16216     16215     16227     16228
     16216     16215     16227     16229     16216     16215     16227     16230
     16217     16215     16227     16228     16217     16215     16227     16229
     16217     16215     16227     16230     16218     16221     16222     16223
     16218     16221     16222     16224     16219     16218     16221     16222
     16220     16218     16221     16222     16221     16222     16224     16225
     16221     16222     16224     16226     16221     16222     16224     16274
     16222     16224     16274     16275     16222     16224     16274     16276
     16222     16224     16274     16277     16223     16222     16224     16225
     16223     16222     16224     16226     16223     16222     16224     16274
     16224     16274     16277     16278     16224     16274     16277     16279
     16224     16274     16277     16280     16225     16224     16274     16275
     16225     16224     16274     16276     16225     16224     16274     16277
     16226     16224     16274     16275     16226     16224     16274     16276
     16226     16224     16274     16277     16227     16230     16233     16234
     16227     16230     16233     16235     16228     16227     16230     16231
     16228     16227     16230     16232     16228     16227     16230     16233
     16229     16227     16230     16231     16229     16227     16230     16232
     16229     16227     16230     16233     16230     16233     16235     16236
     16230     16233     16235     16237     16231     16230     16233     16234
     16231     16230     16233     16235     16232     16230     16233     16234
     16232     16230     16233     16235     16233     16235     16237     16238
     16233     16235     16237     16239     16233     16235     16237     16240
     16234     16233     16235     16236     16234     16233     16235     16237
     16235     16237     16240     16241     16235     16237     16240     16242
     16236     16235     16237     16238     16236     16235     16237     16239
     16236     16235     16237     16240     16237     16240     16242     16243
     16237     16240     16242     16244     16238     16237     16240     16241
     16238     16237     16240     16242     16239     16237     16240     16241
     16239     16237     16240     16242     16240     16242     16244     16245
     16240     16242     16244     16246     16240     16242     16244     16247
     16241     16240     16242     16243     16241     16240     16242     16244
     16242     16244     16247     16248     16242     16244     16247     16249
     16243     16242     16244     16245     16243     16242     16244     16246
     16243     16242     16244     16247     16244     16247     16249     16250
     16244     16247     16249     16251     16245     16244     16247     16248
     16245     16244     16247     16249     16246     16244     16247     16248
     16246     16244     16247     16249     16247     16249     16251     16252
     16247     16249     16251     16253     16247     16249     16251     16254
     16248     16247     16249     16250     16248     16247     16249     16251
     16249     16251     16254     16255     16249     16251     16254     16256
     16250     16249     16251     16252     16250     16249     16251     16253
     16250     16249     16251     16254     16251     16254     16256     16257
     16251     16254     16256     16258     16252     16251     16254     16255
     16252     16251     16254     16256     16253     16251     16254     16255
     16253     16251     16254     16256     16254     16256     16258     16259
     16254     16256     16258     16260     16254     16256     16258     16261
     16255     16254     16256     16257     16255     16254     16256     16258
     16256     16258     16261     16262     16256     16258     16261     16263
     16256     16258     16261     16264     16257     16256     16258     16259
     16257     16256     16258     16260     16257     16256     16258     16261
     16258     16261     16264     16265     16258     16261     16264     16266
     16258     16261     16264     16267     16259     16258     16261     16262
     16259     16258     16261     16263     16259     16258     16261     16264
     16260     16258     16261     16262     16260     16258     16261     16263
     16260     16258     16261     16264     16261     16264     16267     16268
     16261     16264     16267     16269     16261     16264     16267     16270
     16262     16261     16264     16265     16262     16261     16264     16266
     16262     16261     16264     16267     16263     16261     16264     16265
     16263     16261     16264     16266     16263     16261     16264     16267
     16264     16267     16270     16271     16264     16267     16270     16272
     16264     16267     16270     16273     16265     16264     16267     16268
     16265     16264     16267     16269     16265     16264     16267     16270
     16266     16264     16267     16268     16266     16264     16267     16269
     16266     16264     16267     16270     16268     16267     16270     16271
     16268     16267     16270     16272     16268     16267     16270     16273
     16269     16267     16270     16271     16269     16267     16270     16272
     16269     16267     16270     16273     16274     16277     16280     16281
     16274     16277     16280     16282     16274     16277     16280     16283
     16275     16274     16277     16278     16275     16274     16277     16279
     16275     16274     16277     16280     16276     16274     16277     16278
     16276     16274     16277     16279     16276     16274     16277     16280
     16277     16280     16283     16284     16277     16280     16283     16285
     16277     16280     16283     16286     16278     16277     16280     16281
     16278     16277     16280     16282     16278     16277     16280     16283
     16279     16277     16280     16281     16279     16277     16280     16282
     16279     16277     16280     16283     16280     16283     16286     16287
     16280     16283     16286     16288     16280     16283     16286     16289
     16281     16280     16283     16284     16281     16280     16283     16285
     16281     16280     16283     16286     16282     16280     16283     16284
     16282     16280     16283     16285     16282     16280     16283     16286
     16283     16286     16289     16290     16283     16286     16289     16291
     16283     16286     16289     16292     16284     16283     16286     16287
     16284     16283     16286     16288     16284     16283     16286     16289
     16285     16283     16286     16287     16285     16283     16286     16288
     16285     16283     16286     16289     16286     16289     16292     16293
     16286     16289     16292     16294     16286     16289     16292     16295
     16287     16286     16289     16290     16287     16286     16289     16291
     16287     16286     16289     16292     16288     16286     16289     16290
     16288     16286     16289     16291     16288     16286     16289     16292
     16289     16292     16295     16296     16289     16292     16295     16297
     16289     16292     16295     16298     16290     16289     16292     16293
     16290     16289     16292     16294     16290     16289     16292     16295
     16291     16289     16292     16293     16291     16289     16292     16294
     16291     16289     16292     16295     16292     16295     16298     16299
     16292     16295     16298     16300     16292     16295     16298     16301
     16293     16292     16295     16296     16293     16292     16295     16297
     16293     16292     16295     16298     16294     16292     16295     16296
     16294     16292     16295     16297     16294     16292     16295     16298
     16295     16298     16301     16302     16295     16298     16301     16303
     16295     16298     16301     16304     16296     16295     16298     16299
     16296     16295     16298     16300     16296     16295     16298     16301
     16297     16295     16298     16299     16297     16295     16298     16300
     16297     16295     16298     16301     16298     16301     16304     16305
     16298     16301     16304     16306     16298     16301     16304     16307
     16299     16298     16301     16302     16299     16298     16301     16303
     16299     16298     16301     16304     16300     16298     16301     16302
     16300     16298     16301     16303     16300     16298     16301     16304
     16301     16304     16307     16308     16301     16304     16307     16309
     16301     16304     16307     16310     16302     16301     16304     16305
     16302     16301     16304     16306     16302     16301     16304     16307
     16303     16301     16304     16305     16303     16301     16304     16306
     16303     16301     16304     16307     16304     16307     16310     16311
     16304     16307     16310     16312     16304     16307     16310     16313
     16305     16304     16307     16308     16305     16304     16307     16309
     16305     16304     16307     16310     16306     16304     16307     16308
     16306     16304     16307     16309     16306     16304     16307     16310
     16307     16310     16313     16314     16307     16310     16313     16315
     16307     16310     16313     16316     16308     16307     16310     16311
     16308     16307     16310     16312     16308     16307     16310     16313
     16309     16307     16310     16311     16309     16307     16310     16312
     16309     16307     16310     16313     16310     16313     16316     16317
     16310     16313     16316     16318     16310     16313     16316     16319
     16311     16310     16313     16314     16311     16310     16313     16315
     16311     16310     16313     16316     16312     16310     16313     16314
     16312     16310     16313     16315     16312     16310     16313     16316
     16313     16316     16319     16320     16313     16316     16319     16321
     16313     16316     16319     16322     16314     16313     16316     16317
     16314     16313     16316     16318     16314     16313     16316     16319
     16315     16313     16316     16317     16315     16313     16316     16318
     16315     16313     16316     16319     16317     16316     16319     16320
     16317     16316     16319     16321     16317     16316     16319     16322
     16318     16316     16319     16320     16318     16316     16319     16321
     16318     16316     16319     16322     16323     16327     16330     16331
     16323     16327     16330     16361     16323     16369     16366     16361
     16323     16369     16366     16367     16323     16369     16366     16368
     16324     16323     16325     16326     16324     16323     16327     16328
     16324     16323     16327     16329     16324     16323     16327     16330
     16324     16323     16369     16366     16324     16323     16369     16370
     16324     16323     16369     16371     16325     16323     16327     16328
     16325     16323     16327     16329     16325     16323     16327     16330
     16325     16323     16369     16366     16325     16323     16369     16370
     16325     16323     16369     16371     16326     16325     16323     16327
     16326     16325     16323     16369     16327     16323     16369     16366
     16327     16323     16369     16370     16327     16323     16369     16371
     16327     16330     16331     16332     16327     16330     16331     16333
     16327     16330     16361     16359     16327     16330     16361     16362
     16327     16330     16361     16366     16328     16327     16323     16369
     16328     16327     16330     16331     16328     16327     16330     16361
     16329     16327     16323     16369     16329     16327     16330     16331
     16329     16327     16330     16361     16330     16327     16323     16369
     16330     16331     16333     16334     16330     16331     16333     16335
     16330     16331     16333     16336     16330     16361     16359     16336
     16330     16361     16359     16356     16330     16361     16359     16360
     16330     16361     16362     16363     16330     16361     16362     16364
     16330     16361     16362     16365     16330     16361     16366     16367
     16330     16361     16366     16368     16330     16361     16366     16369
     16331     16330     16361     16359     16331     16330     16361     16362
     16331     16330     16361     16366     16331     16333     16336     16337
     16331     16333     16336     16338     16331     16333     16336     16359
     16332     16331     16330     16361     16332     16331     16333     16334
     16332     16331     16333     16335     16332     16331     16333     16336
     16333     16331     16330     16361     16333     16336     16338     16339
     16333     16336     16338     16340     16333     16336     16338     16348
     16333     16336     16359     16356     16333     16336     16359     16360
     16333     16336     16359     16361     16334     16333     16336     16337
     16334     16333     16336     16338     16334     16333     16336     16359
     16335     16333     16336     16337     16335     16333     16336     16338
     16335     16333     16336     16359     16336     16338     16340     16341
     16336     16338     16340     16342     16336     16338     16340     16343
     16336     16338     16348     16346     16336     16338     16348     16349
     16336     16338     16348     16353     16336     16359     16356     16353
     16336     16359     16356     16357     16336     16359     16356     16358
     16336     16359     16361     16362     16336     16359     16361     16366
     16337     16336     16338     16339     16337     16336     16338     16340
     16337     16336     16338     16348     16337     16336     16359     16356
     16337     16336     16359     16360     16337     16336     16359     16361
     16338     16336     16359     16356     16338     16336     16359     16360
     16338     16336     16359     16361     16338     16340     16343     16344
     16338     16340     16343     16345     16338     16340     16343     16346
     16338     16348     16346     16343     16338     16348     16346     16347
     16338     16348     16346     16372     16338     16348     16349     16350
     16338     16348     16349     16351     16338     16348     16349     16352
     16338     16348     16353     16354     16338     16348     16353     16355
     16338     16348     16353     16356     16339     16338     16336     16359
     16339     16338     16340     16341     16339     16338     16340     16342
     16339     16338     16340     16343     16339     16338     16348     16346
     16339     16338     16348     16349     16339     16338     16348     16353
     16340     16338     16336     16359     16340     16338     16348     16346
     16340     16338     16348     16349     16340     16338     16348     16353
     16340     16343     16346     16347     16340     16343     16346     16348
     16340     16343     16346     16372     16341     16340     16338     16348
     16341     16340     16343     16344     16341     16340     16343     16345
     16341     16340     16343     16346     16342     16340     16338     16348
     16342     16340     16343     16344     16342     16340     16343     16345
     16342     16340     16343     16346     16343     16340     16338     16348
     16343     16346     16348     16349     16343     16346     16348     16353
     16343     16346     16372     16373     16343     16346     16372     16374
     16343     16346     16372     16378     16344     16343     16346     16347
     16344     16343     16346     16348     16344     16343     16346     16372
     16345     16343     16346     16347     16345     16343     16346     16348
     16345     16343     16346     16372     16346     16348     16349     16350
     16346     16348     16349     16351     16346     16348     16349     16352
     16346     16348     16353     16354     16346     16348     16353     16355
     16346     16348     16353     16356     16346     16372     16374     16375
     16346     16372     16374     16376     16346     16372     16374     16377
     16346     16372     16378     16379     16346     16372     16378     16380
     16346     16372     16378     16381     16347     16346     16348     16349
     16347     16346     16348     16353     16347     16346     16372     16373
     16347     16346     16372     16374     16347     16346     16372     16378
     16348     16338     16336     16359     16348     16346     16372     16373
     16348     16346     16372     16374     16348     16346     16372     16378
     16348     16353     16356     16357     16348     16353     16356     16358
     16348     16353     16356     16359     16349     16348     16346     16372
     16349     16348     16353     16354     16349     16348     16353     16355
     16349     16348     16353     16356     16350     16349     16348     16353
     16351     16349     16348     16353     16352     16349     16348     16353
     16353     16348     16346     16372     16353     16356     16359     16360
     16353     16356     16359     16361     16354     16353     16356     16357
     16354     16353     16356     16358     16354     16353     16356     16359
     16355     16353     16356     16357     16355     16353     16356     16358
     16355     16353     16356     16359     16356     16359     16361     16362
     16356     16359     16361     16366     16357     16356     16359     16360
     16357     16356     16359     16361     16358     16356     16359     16360
     16358     16356     16359     16361     16359     16361     16362     16363
     16359     16361     16362     16364     16359     16361     16362     16365
     16359     16361     16366     16367     16359     16361     16366     16368
     16359     16361     16366     16369     16360     16359     16361     16362
     16360     16359     16361     16366     16361     16366     16369     16370
     16361     16366     16369     16371     16362     16361     16366     16367
     16362     16361     16366     16368     16362     16361     16366     16369
     16363     16362     16361     16366     16364     16362     16361     16366
     16365     16362     16361     16366     16367     16366     16369     16370
     16367     16366     16369     16371     16368     16366     16369     16370
     16368     16366     16369     16371     16372     16378     16381     16382
     16372     16378     16381     16383     16372     16378     16381     16384
     16373     16372     16374     16375     16373     16372     16374     16376
     16373     16372     16374     16377     16373     16372     16378     16379
     16373     16372     16378     16380     16373     16372     16378     16381
     16374     16372     16378     16379     16374     16372     16378     16380
     16374     16372     16378     16381     16375     16374     16372     16378
     16376     16374     16372     16378     16377     16374     16372     16378
     16378     16381     16384     16385     16378     16381     16384     16386
     16378     16381     16384     16387     16379     16378     16381     16382
     16379     16378     16381     16383     16379     16378     16381     16384
     16380     16378     16381     16382     16380     16378     16381     16383
     16380     16378     16381     16384     16381     16384     16387     16388
     16381     16384     16387     16389     16381     16384     16387     16393
     16382     16381     16384     16385     16382     16381     16384     16386
     16382     16381     16384     16387     16383     16381     16384     16385
     16383     16381     16384     16386     16383     16381     16384     16387
     16384     16387     16389     16390     16384     16387     16389     16391
     16384     16387     16389     16392     16384     16387     16393     16394
     16384     16387     16393     16395     16384     16387     16393     16396
     16385     16384     16387     16388     16385     16384     16387     16389
     16385     16384     16387     16393     16386     16384     16387     16388
     16386     16384     16387     16389     16386     16384     16387     16393
     16388     16387     16389     16390     16388     16387     16389     16391
     16388     16387     16389     16392     16388     16387     16393     16394
     16388     16387     16393     16395     16388     16387     16393     16396
     16389     16387     16393     16394     16389     16387     16393     16395
     16389     16387     16393     16396     16390     16389     16387     16393
     16391     16389     16387     16393     16392     16389     16387     16393
     16397     16398     16413     16414     16397     16398     16413     16415
     16397     16398     16413     16419     16398     16397     16401     16402
     16398     16397     16401     16403     16398     16397     16401     16404
     16398     16397     16405     16406     16398     16397     16405     16407
     16398     16397     16405     16408     16398     16397     16409     16410
     16398     16397     16409     16411     16398     16397     16409     16412
     16398     16413     16419     16416     16399     16398     16397     16401
     16399     16398     16397     16405     16399     16398     16397     16409
     16399     16398     16413     16414     16399     16398     16413     16415
     16399     16398     16413     16419     16400     16398     16397     16401
     16400     16398     16397     16405     16400     16398     16397     16409
     16400     16398     16413     16414     16400     16398     16413     16415
     16400     16398     16413     16419     16401     16397     16398     16413
     16401     16397     16405     16406     16401     16397     16405     16407
     16401     16397     16405     16408     16401     16397     16409     16410
     16401     16397     16409     16411     16401     16397     16409     16412
     16402     16401     16397     16405     16402     16401     16397     16409
     16403     16401     16397     16405     16403     16401     16397     16409
     16404     16401     16397     16405     16404     16401     16397     16409
     16405     16397     16398     16413     16405     16397     16409     16410
     16405     16397     16409     16411     16405     16397     16409     16412
     16406     16405     16397     16409     16407     16405     16397     16409
     16408     16405     16397     16409     16409     16397     16398     16413
     16413     16419     16416     16417     16413     16419     16416     16418
     16413     16419     16416     16420     16414     16413     16419     16416
     16415     16413     16419     16416     16416     16420     16421     16422
     16416     16420     16421     16423     16416     16420     16421     16424
     16417     16416     16420     16421     16418     16416     16420     16421
     16419     16416     16420     16421     16420     16421     16424     16425
     16420     16421     16424     16426     16420     16421     16424     16432
     16421     16424     16426     16427     16421     16424     16432     16433
     16421     16424     16432     16434     16421     16424     16432     16435
     16422     16421     16424     16425     16422     16421     16424     16426
     16422     16421     16424     16432     16423     16421     16424     16425
     16423     16421     16424     16426     16423     16421     16424     16432
     16424     16426     16427     16428     16424     16426     16427     16429
     16424     16432     16435     16436     16425     16424     16426     16427
     16425     16424     16432     16433     16425     16424     16432     16434
     16425     16424     16432     16435     16426     16424     16432     16433
     16426     16424     16432     16434     16426     16424     16432     16435
     16426     16427     16429     16430     16426     16427     16429     16431
     16426     16427     16429     16441     16427     16426     16424     16432
     16427     16429     16441     16442     16427     16429     16441     16443
     16427     16429     16441     16444     16428     16427     16429     16430
     16428     16427     16429     16431     16428     16427     16429     16441
     16429     16441     16444     16445     16429     16441     16444     16446
     16429     16441     16444     16447     16430     16429     16441     16442
     16430     16429     16441     16443     16430     16429     16441     16444
     16431     16429     16441     16442     16431     16429     16441     16443
     16431     16429     16441     16444     16432     16435     16436     16437
     16432     16435     16436     16438     16433     16432     16435     16436
     16434     16432     16435     16436     16435     16436     16438     16439
     16435     16436     16438     16440     16435     16436     16438     16488
     16436     16438     16488     16489     16436     16438     16488     16490
     16436     16438     16488     16491     16437     16436     16438     16439
     16437     16436     16438     16440     16437     16436     16438     16488
     16438     16488     16491     16492     16438     16488     16491     16493
     16438     16488     16491     16494     16439     16438     16488     16489
     16439     16438     16488     16490     16439     16438     16488     16491
     16440     16438     16488     16489     16440     16438     16488     16490
     16440     16438     16488     16491     16441     16444     16447     16448
     16441     16444     16447     16449     16441     16444     16447     16450
     16442     16441     16444     16445     16442     16441     16444     16446
     16442     16441     16444     16447     16443     16441     16444     16445
     16443     16441     16444     16446     16443     16441     16444     16447
     16444     16447     16450     16451     16444     16447     16450     16452
     16444     16447     16450     16453     16445     16444     16447     16448
     16445     16444     16447     16449     16445     16444     16447     16450
     16446     16444     16447     16448     16446     16444     16447     16449
     16446     16444     16447     16450     16447     16450     16453     16454
     16447     16450     16453     16455     16447     16450     16453     16456
     16448     16447     16450     16451     16448     16447     16450     16452
     16448     16447     16450     16453     16449     16447     16450     16451
     16449     16447     16450     16452     16449     16447     16450     16453
     16450     16453     16456     16457     16450     16453     16456     16458
     16450     16453     16456     16459     16451     16450     16453     16454
     16451     16450     16453     16455     16451     16450     16453     16456
     16452     16450     16453     16454     16452     16450     16453     16455
     16452     16450     16453     16456     16453     16456     16459     16460
     16453     16456     16459     16461     16454     16453     16456     16457
     16454     16453     16456     16458     16454     16453     16456     16459
     16455     16453     16456     16457     16455     16453     16456     16458
     16455     16453     16456     16459     16456     16459     16461     16462
     16456     16459     16461     16463     16457     16456     16459     16460
     16457     16456     16459     16461     16458     16456     16459     16460
     16458     16456     16459     16461     16459     16461     16463     16464
     16459     16461     16463     16465     16459     16461     16463     16466
     16460     16459     16461     16462     16460     16459     16461     16463
     16461     16463     16466     16467     16461     16463     16466     16468
     16461     16463     16466     16469     16462     16461     16463     16464
     16462     16461     16463     16465     16462     16461     16463     16466
     16463     16466     16469     16470     16463     16466     16469     16471
     16463     16466     16469     16472     16464     16463     16466     16467
     16464     16463     16466     16468     16464     16463     16466     16469
     16465     16463     16466     16467     16465     16463     16466     16468
     16465     16463     16466     16469     16466     16469     16472     16473
     16466     16469     16472     16474     16466     16469     16472     16475
     16467     16466     16469     16470     16467     16466     16469     16471
     16467     16466     16469     16472     16468     16466     16469     16470
     16468     16466     16469     16471     16468     16466     16469     16472
     16469     16472     16475     16476     16469     16472     16475     16477
     16469     16472     16475     16478     16470     16469     16472     16473
     16470     16469     16472     16474     16470     16469     16472     16475
     16471     16469     16472     16473     16471     16469     16472     16474
     16471     16469     16472     16475     16472     16475     16478     16479
     16472     16475     16478     16480     16472     16475     16478     16481
     16473     16472     16475     16476     16473     16472     16475     16477
     16473     16472     16475     16478     16474     16472     16475     16476
     16474     16472     16475     16477     16474     16472     16475     16478
     16475     16478     16481     16482     16475     16478     16481     16483
     16475     16478     16481     16484     16476     16475     16478     16479
     16476     16475     16478     16480     16476     16475     16478     16481
     16477     16475     16478     16479     16477     16475     16478     16480
     16477     16475     16478     16481     16478     16481     16484     16485
     16478     16481     16484     16486     16478     16481     16484     16487
     16479     16478     16481     16482     16479     16478     16481     16483
     16479     16478     16481     16484     16480     16478     16481     16482
     16480     16478     16481     16483     16480     16478     16481     16484
     16482     16481     16484     16485     16482     16481     16484     16486
     16482     16481     16484     16487     16483     16481     16484     16485
     16483     16481     16484     16486     16483     16481     16484     16487
     16488     16491     16494     16495     16488     16491     16494     16496
     16488     16491     16494     16497     16489     16488     16491     16492
     16489     16488     16491     16493     16489     16488     16491     16494
     16490     16488     16491     16492     16490     16488     16491     16493
     16490     16488     16491     16494     16491     16494     16497     16498
     16491     16494     16497     16499     16491     16494     16497     16500
     16492     16491     16494     16495     16492     16491     16494     16496
     16492     16491     16494     16497     16493     16491     16494     16495
     16493     16491     16494     16496     16493     16491     16494     16497
     16494     16497     16500     16501     16494     16497     16500     16502
     16494     16497     16500     16503     16495     16494     16497     16498
     16495     16494     16497     16499     16495     16494     16497     16500
     16496     16494     16497     16498     16496     16494     16497     16499
     16496     16494     16497     16500     16497     16500     16503     16504
     16497     16500     16503     16505     16497     16500     16503     16506
     16498     16497     16500     16501     16498     16497     16500     16502
     16498     16497     16500     16503     16499     16497     16500     16501
     16499     16497     16500     16502     16499     16497     16500     16503
     16500     16503     16506     16507     16500     16503     16506     16508
     16500     16503     16506     16509     16501     16500     16503     16504
     16501     16500     16503     16505     16501     16500     16503     16506
     16502     16500     16503     16504     16502     16500     16503     16505
     16502     16500     16503     16506     16503     16506     16509     16510
     16503     16506     16509     16511     16503     16506     16509     16512
     16504     16503     16506     16507     16504     16503     16506     16508
     16504     16503     16506     16509     16505     16503     16506     16507
     16505     16503     16506     16508     16505     16503     16506     16509
     16506     16509     16512     16513     16506     16509     16512     16514
     16506     16509     16512     16515     16507     16506     16509     16510
     16507     16506     16509     16511     16507     16506     16509     16512
     16508     16506     16509     16510     16508     16506     16509     16511
     16508     16506     16509     16512     16509     16512     16515     16516
     16509     16512     16515     16517     16509     16512     16515     16518
     16510     16509     16512     16513     16510     16509     16512     16514
     16510     16509     16512     16515     16511     16509     16512     16513
     16511     16509     16512     16514     16511     16509     16512     16515
     16512     16515     16518     16519     16512     16515     16518     16520
     16512     16515     16518     16521     16513     16512     16515     16516
     16513     16512     16515     16517     16513     16512     16515     16518
     16514     16512     16515     16516     16514     16512     16515     16517
     16514     16512     16515     16518     16515     16518     16521     16522
     16515     16518     16521     16523     16515     16518     16521     16524
     16516     16515     16518     16519     16516     16515     16518     16520
     16516     16515     16518     16521     16517     16515     16518     16519
     16517     16515     16518     16520     16517     16515     16518     16521
     16518     16521     16524     16525     16518     16521     16524     16526
     16518     16521     16524     16527     16519     16518     16521     16522
     16519     16518     16521     16523     16519     16518     16521     16524
     16520     16518     16521     16522     16520     16518     16521     16523
     16520     16518     16521     16524     16521     16524     16527     16528
     16521     16524     16527     16529     16521     16524     16527     16530
     16522     16521     16524     16525     16522     16521     16524     16526
     16522     16521     16524     16527     16523     16521     16524     16525
     16523     16521     16524     16526     16523     16521     16524     16527
     16525     16524     16527     16528     16525     16524     16527     16529
     16525     16524     16527     16530     16526     16524     16527     16528
     16526     16524     16527     16529     16526     16524     16527     16530
     16531     16532     16547     16548     16531     16532     16547     16549
     16531     16532     16547     16553     16532     16531     16535     16536
     16532     16531     16535     16537     16532     16531     16535     16538
     16532     16531     16539     16540     16532     16531     16539     16541
     16532     16531     16539     16542     16532     16531     16543     16544
     16532     16531     16543     16545     16532     16531     16543     16546
     16532     16547     16553     16550     16533     16532     16531     16535
     16533     16532     16531     16539     16533     16532     16531     16543
     16533     16532     16547     16548     16533     16532     16547     16549
     16533     16532     16547     16553     16534     16532     16531     16535
     16534     16532     16531     16539     16534     16532     16531     16543
     16534     16532     16547     16548     16534     16532     16547     16549
     16534     16532     16547     16553     16535     16531     16532     16547
     16535     16531     16539     16540     16535     16531     16539     16541
     16535     16531     16539     16542     16535     16531     16543     16544
     16535     16531     16543     16545     16535     16531     16543     16546
     16536     16535     16531     16539     16536     16535     16531     16543
     16537     16535     16531     16539     16537     16535     16531     16543
     16538     16535     16531     16539     16538     16535     16531     16543
     16539     16531     16532     16547     16539     16531     16543     16544
     16539     16531     16543     16545     16539     16531     16543     16546
     16540     16539     16531     16543     16541     16539     16531     16543
     16542     16539     16531     16543     16543     16531     16532     16547
     16547     16553     16550     16551     16547     16553     16550     16552
     16547     16553     16550     16554     16548     16547     16553     16550
     16549     16547     16553     16550     16550     16554     16555     16556
     16550     16554     16555     16557     16550     16554     16555     16558
     16551     16550     16554     16555     16552     16550     16554     16555
     16553     16550     16554     16555     16554     16555     16558     16559
     16554     16555     16558     16560     16554     16555     16558     16566
     16555     16558     16560     16561     16555     16558     16566     16567
     16555     16558     16566     16568     16555     16558     16566     16569
     16556     16555     16558     16559     16556     16555     16558     16560
     16556     16555     16558     16566     16557     16555     16558     16559
     16557     16555     16558     16560     16557     16555     16558     16566
     16558     16560     16561     16562     16558     16560     16561     16563
     16558     16566     16569     16570     16559     16558     16560     16561
     16559     16558     16566     16567     16559     16558     16566     16568
     16559     16558     16566     16569     16560     16558     16566     16567
     16560     16558     16566     16568     16560     16558     16566     16569
     16560     16561     16563     16564     16560     16561     16563     16565
     16560     16561     16563     16575     16561     16560     16558     16566
     16561     16563     16575     16576     16561     16563     16575     16577
     16561     16563     16575     16578     16562     16561     16563     16564
     16562     16561     16563     16565     16562     16561     16563     16575
     16563     16575     16578     16579     16563     16575     16578     16580
     16563     16575     16578     16581     16564     16563     16575     16576
     16564     16563     16575     16577     16564     16563     16575     16578
     16565     16563     16575     16576     16565     16563     16575     16577
     16565     16563     16575     16578     16566     16569     16570     16571
     16566     16569     16570     16572     16567     16566     16569     16570
     16568     16566     16569     16570     16569     16570     16572     16573
     16569     16570     16572     16574     16569     16570     16572     16622
     16570     16572     16622     16623     16570     16572     16622     16624
     16570     16572     16622     16625     16571     16570     16572     16573
     16571     16570     16572     16574     16571     16570     16572     16622
     16572     16622     16625     16626     16572     16622     16625     16627
     16572     16622     16625     16628     16573     16572     16622     16623
     16573     16572     16622     16624     16573     16572     16622     16625
     16574     16572     16622     16623     16574     16572     16622     16624
     16574     16572     16622     16625     16575     16578     16581     16582
     16575     16578     16581     16583     16576     16575     16578     16579
     16576     16575     16578     16580     16576     16575     16578     16581
     16577     16575     16578     16579     16577     16575     16578     16580
     16577     16575     16578     16581     16578     16581     16583     16584
     16578     16581     16583     16585     16579     16578     16581     16582
     16579     16578     16581     16583     16580     16578     16581     16582
     16580     16578     16581     16583     16581     16583     16585     16586
     16581     16583     16585     16587     16581     16583     16585     16588
     16582     16581     16583     16584     16582     16581     16583     16585
     16583     16585     16588     16589     16583     16585     16588     16590
     16584     16583     16585     16586     16584     16583     16585     16587
     16584     16583     16585     16588     16585     16588     16590     16591
     16585     16588     16590     16592     16586     16585     16588     16589
     16586     16585     16588     16590     16587     16585     16588     16589
     16587     16585     16588     16590     16588     16590     16592     16593
     16588     16590     16592     16594     16588     16590     16592     16595
     16589     16588     16590     16591     16589     16588     16590     16592
     16590     16592     16595     16596     16590     16592     16595     16597
     16591     16590     16592     16593     16591     16590     16592     16594
     16591     16590     16592     16595     16592     16595     16597     16598
     16592     16595     16597     16599     16593     16592     16595     16596
     16593     16592     16595     16597     16594     16592     16595     16596
     16594     16592     16595     16597     16595     16597     16599     16600
     16595     16597     16599     16601     16595     16597     16599     16602
     16596     16595     16597     16598     16596     16595     16597     16599
     16597     16599     16602     16603     16597     16599     16602     16604
     16598     16597     16599     16600     16598     16597     16599     16601
     16598     16597     16599     16602     16599     16602     16604     16605
     16599     16602     16604     16606     16600     16599     16602     16603
     16600     16599     16602     16604     16601     16599     16602     16603
     16601     16599     16602     16604     16602     16604     16606     16607
     16602     16604     16606     16608     16602     16604     16606     16609
     16603     16602     16604     16605     16603     16602     16604     16606
     16604     16606     16609     16610     16604     16606     16609     16611
     16604     16606     16609     16612     16605     16604     16606     16607
     16605     16604     16606     16608     16605     16604     16606     16609
     16606     16609     16612     16613     16606     16609     16612     16614
     16606     16609     16612     16615     16607     16606     16609     16610
     16607     16606     16609     16611     16607     16606     16609     16612
     16608     16606     16609     16610     16608     16606     16609     16611
     16608     16606     16609     16612     16609     16612     16615     16616
     16609     16612     16615     16617     16609     16612     16615     16618
     16610     16609     16612     16613     16610     16609     16612     16614
     16610     16609     16612     16615     16611     16609     16612     16613
     16611     16609     16612     16614     16611     16609     16612     16615
     16612     16615     16618     16619     16612     16615     16618     16620
     16612     16615     16618     16621     16613     16612     16615     16616
     16613     16612     16615     16617     16613     16612     16615     16618
     16614     16612     16615     16616     16614     16612     16615     16617
     16614     16612     16615     16618     16616     16615     16618     16619
     16616     16615     16618     16620     16616     16615     16618     16621
     16617     16615     16618     16619     16617     16615     16618     16620
     16617     16615     16618     16621     16622     16625     16628     16629
     16622     16625     16628     16630     16622     16625     16628     16631
     16623     16622     16625     16626     16623     16622     16625     16627
     16623     16622     16625     16628     16624     16622     16625     16626
     16624     16622     16625     16627     16624     16622     16625     16628
     16625     16628     16631     16632     16625     16628     16631     16633
     16625     16628     16631     16634     16626     16625     16628     16629
     16626     16625     16628     16630     16626     16625     16628     16631
     16627     16625     16628     16629     16627     16625     16628     16630
     16627     16625     16628     16631     16628     16631     16634     16635
     16628     16631     16634     16636     16628     16631     16634     16637
     16629     16628     16631     16632     16629     16628     16631     16633
     16629     16628     16631     16634     16630     16628     16631     16632
     16630     16628     16631     16633     16630     16628     16631     16634
     16631     16634     16637     16638     16631     16634     16637     16639
     16631     16634     16637     16640     16632     16631     16634     16635
     16632     16631     16634     16636     16632     16631     16634     16637
     16633     16631     16634     16635     16633     16631     16634     16636
     16633     16631     16634     16637     16634     16637     16640     16641
     16634     16637     16640     16642     16634     16637     16640     16643
     16635     16634     16637     16638     16635     16634     16637     16639
     16635     16634     16637     16640     16636     16634     16637     16638
     16636     16634     16637     16639     16636     16634     16637     16640
     16637     16640     16643     16644     16637     16640     16643     16645
     16637     16640     16643     16646     16638     16637     16640     16641
     16638     16637     16640     16642     16638     16637     16640     16643
     16639     16637     16640     16641     16639     16637     16640     16642
     16639     16637     16640     16643     16640     16643     16646     16647
     16640     16643     16646     16648     16640     16643     16646     16649
     16641     16640     16643     16644     16641     16640     16643     16645
     16641     16640     16643     16646     16642     16640     16643     16644
     16642     16640     16643     16645     16642     16640     16643     16646
     16643     16646     16649     16650     16643     16646     16649     16651
     16643     16646     16649     16652     16644     16643     16646     16647
     16644     16643     16646     16648     16644     16643     16646     16649
     16645     16643     16646     16647     16645     16643     16646     16648
     16645     16643     16646     16649     16646     16649     16652     16653
     16646     16649     16652     16654     16646     16649     16652     16655
     16647     16646     16649     16650     16647     16646     16649     16651
     16647     16646     16649     16652     16648     16646     16649     16650
     16648     16646     16649     16651     16648     16646     16649     16652
     16649     16652     16655     16656     16649     16652     16655     16657
     16649     16652     16655     16658     16650     16649     16652     16653
     16650     16649     16652     16654     16650     16649     16652     16655
     16651     16649     16652     16653     16651     16649     16652     16654
     16651     16649     16652     16655     16652     16655     16658     16659
     16652     16655     16658     16660     16652     16655     16658     16661
     16653     16652     16655     16656     16653     16652     16655     16657
     16653     16652     16655     16658     16654     16652     16655     16656
     16654     16652     16655     16657     16654     16652     16655     16658
     16655     16658     16661     16662     16655     16658     16661     16663
     16655     16658     16661     16664     16656     16655     16658     16659
     16656     16655     16658     16660     16656     16655     16658     16661
     16657     16655     16658     16659     16657     16655     16658     16660
     16657     16655     16658     16661     16658     16661     16664     16665
     16658     16661     16664     16666     16658     16661     16664     16667
     16659     16658     16661     16662     16659     16658     16661     16663
     16659     16658     16661     16664     16660     16658     16661     16662
     16660     16658     16661     16663     16660     16658     16661     16664
     16661     16664     16667     16668     16661     16664     16667     16669
     16661     16664     16667     16670     16662     16661     16664     16665
     16662     16661     16664     16666     16662     16661     16664     16667
     16663     16661     16664     16665     16663     16661     16664     16666
     16663     16661     16664     16667     16665     16664     16667     16668
     16665     16664     16667     16669     16665     16664     16667     16670
     16666     16664     16667     16668     16666     16664     16667     16669
     16666     16664     16667     16670     16671     16684     16687     16688
     16671     16684     16687     16689     16671     16684     16687     16693
     16672     16671     16676     16677     16672     16671     16676     16678
     16672     16671     16676     16679     16672     16671     16680     16681
     16672     16671     16680     16682     16672     16671     16680     16683
     16672     16671     16684     16685     16672     16671     16684     16686
     16672     16671     16684     16687     16673     16672     16671     16676
     16673     16672     16671     16680     16673     16672     16671     16684
     16674     16672     16671     16676     16674     16672     16671     16680
     16674     16672     16671     16684     16675     16672     16671     16676
     16675     16672     16671     16680     16675     16672     16671     16684
     16676     16671     16680     16681     16676     16671     16680     16682
     16676     16671     16680     16683     16676     16671     16684     16685
     16676     16671     16684     16686     16676     16671     16684     16687
     16677     16676     16671     16680     16677     16676     16671     16684
     16678     16676     16671     16680     16678     16676     16671     16684
     16679     16676     16671     16680     16679     16676     16671     16684
     16680     16671     16684     16685     16680     16671     16684     16686
     16680     16671     16684     16687     16681     16680     16671     16684
     16682     16680     16671     16684     16683     16680     16671     16684
     16684     16687     16693     16690     16685     16684     16687     16688
     16685     16684     16687     16689     16685     16684     16687     16693
     16686     16684     16687     16688     16686     16684     16687     16689
     16686     16684     16687     16693     16687     16693     16690     16691
     16687     16693     16690     16692     16687     16693     16690     16694
     16688     16687     16693     16690     16689     16687     16693     16690
     16690     16694     16695     16696     16690     16694     16695     16697
     16690     16694     16695     16698     16691     16690     16694     16695
     16692     16690     16694     16695     16693     16690     16694     16695
     16694     16695     16698     16699     16694     16695     16698     16700
     16694     16695     16698     16706     16695     16698     16700     16701
     16695     16698     16706     16707     16695     16698     16706     16708
     16695     16698     16706     16709     16696     16695     16698     16699
     16696     16695     16698     16700     16696     16695     16698     16706
     16697     16695     16698     16699     16697     16695     16698     16700
     16697     16695     16698     16706     16698     16700     16701     16702
     16698     16700     16701     16703     16698     16706     16709     16710
     16699     16698     16700     16701     16699     16698     16706     16707
     16699     16698     16706     16708     16699     16698     16706     16709
     16700     16698     16706     16707     16700     16698     16706     16708
     16700     16698     16706     16709     16700     16701     16703     16704
     16700     16701     16703     16705     16700     16701     16703     16715
     16701     16700     16698     16706     16701     16703     16715     16716
     16701     16703     16715     16717     16701     16703     16715     16718
     16702     16701     16703     16704     16702     16701     16703     16705
     16702     16701     16703     16715     16703     16715     16718     16719
     16703     16715     16718     16720     16703     16715     16718     16721
     16704     16703     16715     16716     16704     16703     16715     16717
     16704     16703     16715     16718     16705     16703     16715     16716
     16705     16703     16715     16717     16705     16703     16715     16718
     16706     16709     16710     16711     16706     16709     16710     16712
     16707     16706     16709     16710     16708     16706     16709     16710
     16709     16710     16712     16713     16709     16710     16712     16714
     16709     16710     16712     16760     16710     16712     16760     16761
     16710     16712     16760     16762     16710     16712     16760     16763
     16711     16710     16712     16713     16711     16710     16712     16714
     16711     16710     16712     16760     16712     16760     16763     16764
     16712     16760     16763     16765     16712     16760     16763     16766
     16713     16712     16760     16761     16713     16712     16760     16762
     16713     16712     16760     16763     16714     16712     16760     16761
     16714     16712     16760     16762     16714     16712     16760     16763
     16715     16718     16721     16722     16715     16718     16721     16723
     16715     16718     16721     16724     16716     16715     16718     16719
     16716     16715     16718     16720     16716     16715     16718     16721
     16717     16715     16718     16719     16717     16715     16718     16720
     16717     16715     16718     16721     16718     16721     16724     16725
     16718     16721     16724     16726     16718     16721     16724     16727
     16719     16718     16721     16722     16719     16718     16721     16723
     16719     16718     16721     16724     16720     16718     16721     16722
     16720     16718     16721     16723     16720     16718     16721     16724
     16721     16724     16727     16728     16721     16724     16727     16729
     16721     16724     16727     16730     16722     16721     16724     16725
     16722     16721     16724     16726     16722     16721     16724     16727
     16723     16721     16724     16725     16723     16721     16724     16726
     16723     16721     16724     16727     16724     16727     16730     16731
     16724     16727     16730     16732     16724     16727     16730     16733
     16725     16724     16727     16728     16725     16724     16727     16729
     16725     16724     16727     16730     16726     16724     16727     16728
     16726     16724     16727     16729     16726     16724     16727     16730
     16727     16730     16733     16734     16727     16730     16733     16735
     16728     16727     16730     16731     16728     16727     16730     16732
     16728     16727     16730     16733     16729     16727     16730     16731
     16729     16727     16730     16732     16729     16727     16730     16733
     16730     16733     16735     16736     16730     16733     16735     16737
     16731     16730     16733     16734     16731     16730     16733     16735
     16732     16730     16733     16734     16732     16730     16733     16735
     16733     16735     16737     16738     16733     16735     16737     16739
     16733     16735     16737     16740     16734     16733     16735     16736
     16734     16733     16735     16737     16735     16737     16740     16741
     16735     16737     16740     16742     16736     16735     16737     16738
     16736     16735     16737     16739     16736     16735     16737     16740
     16737     16740     16742     16743     16737     16740     16742     16744
     16738     16737     16740     16741     16738     16737     16740     16742
     16739     16737     16740     16741     16739     16737     16740     16742
     16740     16742     16744     16745     16740     16742     16744     16746
     16740     16742     16744     16747     16741     16740     16742     16743
     16741     16740     16742     16744     16742     16744     16747     16748
     16742     16744     16747     16749     16742     16744     16747     16750
     16743     16742     16744     16745     16743     16742     16744     16746
     16743     16742     16744     16747     16744     16747     16750     16751
     16744     16747     16750     16752     16744     16747     16750     16753
     16745     16744     16747     16748     16745     16744     16747     16749
     16745     16744     16747     16750     16746     16744     16747     16748
     16746     16744     16747     16749     16746     16744     16747     16750
     16747     16750     16753     16754     16747     16750     16753     16755
     16747     16750     16753     16756     16748     16747     16750     16751
     16748     16747     16750     16752     16748     16747     16750     16753
     16749     16747     16750     16751     16749     16747     16750     16752
     16749     16747     16750     16753     16750     16753     16756     16757
     16750     16753     16756     16758     16750     16753     16756     16759
     16751     16750     16753     16754     16751     16750     16753     16755
     16751     16750     16753     16756     16752     16750     16753     16754
     16752     16750     16753     16755     16752     16750     16753     16756
     16754     16753     16756     16757     16754     16753     16756     16758
     16754     16753     16756     16759     16755     16753     16756     16757
     16755     16753     16756     16758     16755     16753     16756     16759
     16760     16763     16766     16767     16760     16763     16766     16768
     16760     16763     16766     16769     16761     16760     16763     16764
     16761     16760     16763     16765     16761     16760     16763     16766
     16762     16760     16763     16764     16762     16760     16763     16765
     16762     16760     16763     16766     16763     16766     16769     16770
     16763     16766     16769     16771     16763     16766     16769     16772
     16764     16763     16766     16767     16764     16763     16766     16768
     16764     16763     16766     16769     16765     16763     16766     16767
     16765     16763     16766     16768     16765     16763     16766     16769
     16766     16769     16772     16773     16766     16769     16772     16774
     16766     16769     16772     16775     16767     16766     16769     16770
     16767     16766     16769     16771     16767     16766     16769     16772
     16768     16766     16769     16770     16768     16766     16769     16771
     16768     16766     16769     16772     16769     16772     16775     16776
     16769     16772     16775     16777     16769     16772     16775     16778
     16770     16769     16772     16773     16770     16769     16772     16774
     16770     16769     16772     16775     16771     16769     16772     16773
     16771     16769     16772     16774     16771     16769     16772     16775
     16772     16775     16778     16779     16772     16775     16778     16780
     16772     16775     16778     16781     16773     16772     16775     16776
     16773     16772     16775     16777     16773     16772     16775     16778
     16774     16772     16775     16776     16774     16772     16775     16777
     16774     16772     16775     16778     16775     16778     16781     16782
     16775     16778     16781     16783     16775     16778     16781     16784
     16776     16775     16778     16779     16776     16775     16778     16780
     16776     16775     16778     16781     16777     16775     16778     16779
     16777     16775     16778     16780     16777     16775     16778     16781
     16778     16781     16784     16785     16778     16781     16784     16786
     16778     16781     16784     16787     16779     16778     16781     16782
     16779     16778     16781     16783     16779     16778     16781     16784
     16780     16778     16781     16782     16780     16778     16781     16783
     16780     16778     16781     16784     16781     16784     16787     16788
     16781     16784     16787     16789     16781     16784     16787     16790
     16782     16781     16784     16785     16782     16781     16784     16786
     16782     16781     16784     16787     16783     16781     16784     16785
     16783     16781     16784     16786     16783     16781     16784     16787
     16784     16787     16790     16791     16784     16787     16790     16792
     16784     16787     16790     16793     16785     16784     16787     16788
     16785     16784     16787     16789     16785     16784     16787     16790
     16786     16784     16787     16788     16786     16784     16787     16789
     16786     16784     16787     16790     16787     16790     16793     16794
     16787     16790     16793     16795     16787     16790     16793     16796
     16788     16787     16790     16791     16788     16787     16790     16792
     16788     16787     16790     16793     16789     16787     16790     16791
     16789     16787     16790     16792     16789     16787     16790     16793
     16790     16793     16796     16797     16790     16793     16796     16798
     16790     16793     16796     16799     16791     16790     16793     16794
     16791     16790     16793     16795     16791     16790     16793     16796
     16792     16790     16793     16794     16792     16790     16793     16795
     16792     16790     16793     16796     16793     16796     16799     16800
     16793     16796     16799     16801     16793     16796     16799     16802
     16794     16793     16796     16797     16794     16793     16796     16798
     16794     16793     16796     16799     16795     16793     16796     16797
     16795     16793     16796     16798     16795     16793     16796     16799
     16796     16799     16802     16803     16796     16799     16802     16804
     16796     16799     16802     16805     16797     16796     16799     16800
     16797     16796     16799     16801     16797     16796     16799     16802
     16798     16796     16799     16800     16798     16796     16799     16801
     16798     16796     16799     16802     16799     16802     16805     16806
     16799     16802     16805     16807     16799     16802     16805     16808
     16800     16799     16802     16803     16800     16799     16802     16804
     16800     16799     16802     16805     16801     16799     16802     16803
     16801     16799     16802     16804     16801     16799     16802     16805
     16803     16802     16805     16806     16803     16802     16805     16807
     16803     16802     16805     16808     16804     16802     16805     16806
     16804     16802     16805     16807     16804     16802     16805     16808
     16809     16813     16816     16817     16809     16813     16816     16847
     16809     16855     16852     16847     16809     16855     16852     16853
     16809     16855     16852     16854     16810     16809     16811     16812
     16810     16809     16813     16814     16810     16809     16813     16815
     16810     16809     16813     16816     16810     16809     16855     16852
     16810     16809     16855     16856     16810     16809     16855     16857
     16811     16809     16813     16814     16811     16809     16813     16815
     16811     16809     16813     16816     16811     16809     16855     16852
     16811     16809     16855     16856     16811     16809     16855     16857
     16812     16811     16809     16813     16812     16811     16809     16855
     16813     16809     16855     16852     16813     16809     16855     16856
     16813     16809     16855     16857     16813     16816     16817     16818
     16813     16816     16817     16819     16813     16816     16847     16845
     16813     16816     16847     16848     16813     16816     16847     16852
     16814     16813     16809     16855     16814     16813     16816     16817
     16814     16813     16816     16847     16815     16813     16809     16855
     16815     16813     16816     16817     16815     16813     16816     16847
     16816     16813     16809     16855     16816     16817     16819     16820
     16816     16817     16819     16821     16816     16817     16819     16822
     16816     16847     16845     16822     16816     16847     16845     16842
     16816     16847     16845     16846     16816     16847     16848     16849
     16816     16847     16848     16850     16816     16847     16848     16851
     16816     16847     16852     16853     16816     16847     16852     16854
     16816     16847     16852     16855     16817     16816     16847     16845
     16817     16816     16847     16848     16817     16816     16847     16852
     16817     16819     16822     16823     16817     16819     16822     16824
     16817     16819     16822     16845     16818     16817     16816     16847
     16818     16817     16819     16820     16818     16817     16819     16821
     16818     16817     16819     16822     16819     16817     16816     16847
     16819     16822     16824     16825     16819     16822     16824     16826
     16819     16822     16824     16834     16819     16822     16845     16842
     16819     16822     16845     16846     16819     16822     16845     16847
     16820     16819     16822     16823     16820     16819     16822     16824
     16820     16819     16822     16845     16821     16819     16822     16823
     16821     16819     16822     16824     16821     16819     16822     16845
     16822     16824     16826     16827     16822     16824     16826     16828
     16822     16824     16826     16829     16822     16824     16834     16832
     16822     16824     16834     16835     16822     16824     16834     16839
     16822     16845     16842     16839     16822     16845     16842     16843
     16822     16845     16842     16844     16822     16845     16847     16848
     16822     16845     16847     16852     16823     16822     16824     16825
     16823     16822     16824     16826     16823     16822     16824     16834
     16823     16822     16845     16842     16823     16822     16845     16846
     16823     16822     16845     16847     16824     16822     16845     16842
     16824     16822     16845     16846     16824     16822     16845     16847
     16824     16826     16829     16830     16824     16826     16829     16831
     16824     16826     16829     16832     16824     16834     16832     16829
     16824     16834     16832     16833     16824     16834     16832     16858
     16824     16834     16835     16836     16824     16834     16835     16837
     16824     16834     16835     16838     16824     16834     16839     16840
     16824     16834     16839     16841     16824     16834     16839     16842
     16825     16824     16822     16845     16825     16824     16826     16827
     16825     16824     16826     16828     16825     16824     16826     16829
     16825     16824     16834     16832     16825     16824     16834     16835
     16825     16824     16834     16839     16826     16824     16822     16845
     16826     16824     16834     16832     16826     16824     16834     16835
     16826     16824     16834     16839     16826     16829     16832     16833
     16826     16829     16832     16834     16826     16829     16832     16858
     16827     16826     16824     16834     16827     16826     16829     16830
     16827     16826     16829     16831     16827     16826     16829     16832
     16828     16826     16824     16834     16828     16826     16829     16830
     16828     16826     16829     16831     16828     16826     16829     16832
     16829     16826     16824     16834     16829     16832     16834     16835
     16829     16832     16834     16839     16829     16832     16858     16859
     16829     16832     16858     16860     16829     16832     16858     16864
     16830     16829     16832     16833     16830     16829     16832     16834
     16830     16829     16832     16858     16831     16829     16832     16833
     16831     16829     16832     16834     16831     16829     16832     16858
     16832     16834     16835     16836     16832     16834     16835     16837
     16832     16834     16835     16838     16832     16834     16839     16840
     16832     16834     16839     16841     16832     16834     16839     16842
     16832     16858     16860     16861     16832     16858     16860     16862
     16832     16858     16860     16863     16832     16858     16864     16865
     16832     16858     16864     16866     16832     16858     16864     16867
     16833     16832     16834     16835     16833     16832     16834     16839
     16833     16832     16858     16859     16833     16832     16858     16860
     16833     16832     16858     16864     16834     16824     16822     16845
     16834     16832     16858     16859     16834     16832     16858     16860
     16834     16832     16858     16864     16834     16839     16842     16843
     16834     16839     16842     16844     16834     16839     16842     16845
     16835     16834     16832     16858     16835     16834     16839     16840
     16835     16834     16839     16841     16835     16834     16839     16842
     16836     16835     16834     16839     16837     16835     16834     16839
     16838     16835     16834     16839     16839     16834     16832     16858
     16839     16842     16845     16846     16839     16842     16845     16847
     16840     16839     16842     16843     16840     16839     16842     16844
     16840     16839     16842     16845     16841     16839     16842     16843
     16841     16839     16842     16844     16841     16839     16842     16845
     16842     16845     16847     16848     16842     16845     16847     16852
     16843     16842     16845     16846     16843     16842     16845     16847
     16844     16842     16845     16846     16844     16842     16845     16847
     16845     16847     16848     16849     16845     16847     16848     16850
     16845     16847     16848     16851     16845     16847     16852     16853
     16845     16847     16852     16854     16845     16847     16852     16855
     16846     16845     16847     16848     16846     16845     16847     16852
     16847     16852     16855     16856     16847     16852     16855     16857
     16848     16847     16852     16853     16848     16847     16852     16854
     16848     16847     16852     16855     16849     16848     16847     16852
     16850     16848     16847     16852     16851     16848     16847     16852
     16853     16852     16855     16856     16853     16852     16855     16857
     16854     16852     16855     16856     16854     16852     16855     16857
     16858     16864     16867     16868     16858     16864     16867     16869
     16858     16864     16867     16870     16859     16858     16860     16861
     16859     16858     16860     16862     16859     16858     16860     16863
     16859     16858     16864     16865     16859     16858     16864     16866
     16859     16858     16864     16867     16860     16858     16864     16865
     16860     16858     16864     16866     16860     16858     16864     16867
     16861     16860     16858     16864     16862     16860     16858     16864
     16863     16860     16858     16864     16864     16867     16870     16871
     16864     16867     16870     16872     16864     16867     16870     16873
     16865     16864     16867     16868     16865     16864     16867     16869
     16865     16864     16867     16870     16866     16864     16867     16868
     16866     16864     16867     16869     16866     16864     16867     16870
     16867     16870     16873     16874     16867     16870     16873     16875
     16867     16870     16873     16879     16868     16867     16870     16871
     16868     16867     16870     16872     16868     16867     16870     16873
     16869     16867     16870     16871     16869     16867     16870     16872
     16869     16867     16870     16873     16870     16873     16875     16876
     16870     16873     16875     16877     16870     16873     16875     16878
     16870     16873     16879     16880     16870     16873     16879     16881
     16870     16873     16879     16882     16871     16870     16873     16874
     16871     16870     16873     16875     16871     16870     16873     16879
     16872     16870     16873     16874     16872     16870     16873     16875
     16872     16870     16873     16879     16874     16873     16875     16876
     16874     16873     16875     16877     16874     16873     16875     16878
     16874     16873     16879     16880     16874     16873     16879     16881
     16874     16873     16879     16882     16875     16873     16879     16880
     16875     16873     16879     16881     16875     16873     16879     16882
     16876     16875     16873     16879     16877     16875     16873     16879
     16878     16875     16873     16879     16883     16887     16890     16891
     16883     16887     16890     16892     16883     16887     16890     16896
     16884     16883     16887     16888     16884     16883     16887     16889
     16884     16883     16887     16890     16885     16883     16887     16888
     16885     16883     16887     16889     16885     16883     16887     16890
     16886     16883     16887     16888     16886     16883     16887     16889
     16886     16883     16887     16890     16887     16890     16896     16893
     16888     16887     16890     16891     16888     16887     16890     16892
     16888     16887     16890     16896     16889     16887     16890     16891
     16889     16887     16890     16892     16889     16887     16890     16896
     16890     16896     16893     16894     16890     16896     16893     16895
     16890     16896     16893     16897     16891     16890     16896     16893
     16892     16890     16896     16893     16893     16897     16898     16899
     16893     16897     16898     16900     16893     16897     16898     16901
     16894     16893     16897     16898     16895     16893     16897     16898
     16896     16893     16897     16898     16897     16898     16901     16902
     16897     16898     16901     16903     16897     16898     16901     16909
     16898     16901     16903     16904     16898     16901     16909     16910
     16898     16901     16909     16911     16898     16901     16909     16912
     16899     16898     16901     16902     16899     16898     16901     16903
     16899     16898     16901     16909     16900     16898     16901     16902
     16900     16898     16901     16903     16900     16898     16901     16909
     16901     16903     16904     16905     16901     16903     16904     16906
     16901     16909     16912     16913     16902     16901     16903     16904
     16902     16901     16909     16910     16902     16901     16909     16911
     16902     16901     16909     16912     16903     16901     16909     16910
     16903     16901     16909     16911     16903     16901     16909     16912
     16903     16904     16906     16907     16903     16904     16906     16908
     16903     16904     16906     16918     16904     16903     16901     16909
     16904     16906     16918     16919     16904     16906     16918     16920
     16904     16906     16918     16921     16905     16904     16906     16907
     16905     16904     16906     16908     16905     16904     16906     16918
     16906     16918     16921     16922     16906     16918     16921     16923
     16906     16918     16921     16924     16907     16906     16918     16919
     16907     16906     16918     16920     16907     16906     16918     16921
     16908     16906     16918     16919     16908     16906     16918     16920
     16908     16906     16918     16921     16909     16912     16913     16914
     16909     16912     16913     16915     16910     16909     16912     16913
     16911     16909     16912     16913     16912     16913     16915     16916
     16912     16913     16915     16917     16912     16913     16915     16965
     16913     16915     16965     16966     16913     16915     16965     16967
     16913     16915     16965     16968     16914     16913     16915     16916
     16914     16913     16915     16917     16914     16913     16915     16965
     16915     16965     16968     16969     16915     16965     16968     16970
     16915     16965     16968     16971     16916     16915     16965     16966
     16916     16915     16965     16967     16916     16915     16965     16968
     16917     16915     16965     16966     16917     16915     16965     16967
     16917     16915     16965     16968     16918     16921     16924     16925
     16918     16921     16924     16926     16918     16921     16924     16927
     16919     16918     16921     16922     16919     16918     16921     16923
     16919     16918     16921     16924     16920     16918     16921     16922
     16920     16918     16921     16923     16920     16918     16921     16924
     16921     16924     16927     16928     16921     16924     16927     16929
     16921     16924     16927     16930     16922     16921     16924     16925
     16922     16921     16924     16926     16922     16921     16924     16927
     16923     16921     16924     16925     16923     16921     16924     16926
     16923     16921     16924     16927     16924     16927     16930     16931
     16924     16927     16930     16932     16924     16927     16930     16933
     16925     16924     16927     16928     16925     16924     16927     16929
     16925     16924     16927     16930     16926     16924     16927     16928
     16926     16924     16927     16929     16926     16924     16927     16930
     16927     16930     16933     16934     16927     16930     16933     16935
     16927     16930     16933     16936     16928     16927     16930     16931
     16928     16927     16930     16932     16928     16927     16930     16933
     16929     16927     16930     16931     16929     16927     16930     16932
     16929     16927     16930     16933     16930     16933     16936     16937
     16930     16933     16936     16938     16931     16930     16933     16934
     16931     16930     16933     16935     16931     16930     16933     16936
     16932     16930     16933     16934     16932     16930     16933     16935
     16932     16930     16933     16936     16933     16936     16938     16939
     16933     16936     16938     16940     16934     16933     16936     16937
     16934     16933     16936     16938     16935     16933     16936     16937
     16935     16933     16936     16938     16936     16938     16940     16941
     16936     16938     16940     16942     16936     16938     16940     16943
     16937     16936     16938     16939     16937     16936     16938     16940
     16938     16940     16943     16944     16938     16940     16943     16945
     16938     16940     16943     16946     16939     16938     16940     16941
     16939     16938     16940     16942     16939     16938     16940     16943
     16940     16943     16946     16947     16940     16943     16946     16948
     16940     16943     16946     16949     16941     16940     16943     16944
     16941     16940     16943     16945     16941     16940     16943     16946
     16942     16940     16943     16944     16942     16940     16943     16945
     16942     16940     16943     16946     16943     16946     16949     16950
     16943     16946     16949     16951     16943     16946     16949     16952
     16944     16943     16946     16947     16944     16943     16946     16948
     16944     16943     16946     16949     16945     16943     16946     16947
     16945     16943     16946     16948     16945     16943     16946     16949
     16946     16949     16952     16953     16946     16949     16952     16954
     16946     16949     16952     16955     16947     16946     16949     16950
     16947     16946     16949     16951     16947     16946     16949     16952
     16948     16946     16949     16950     16948     16946     16949     16951
     16948     16946     16949     16952     16949     16952     16955     16956
     16949     16952     16955     16957     16949     16952     16955     16958
     16950     16949     16952     16953     16950     16949     16952     16954
     16950     16949     16952     16955     16951     16949     16952     16953
     16951     16949     16952     16954     16951     16949     16952     16955
     16952     16955     16958     16959     16952     16955     16958     16960
     16952     16955     16958     16961     16953     16952     16955     16956
     16953     16952     16955     16957     16953     16952     16955     16958
     16954     16952     16955     16956     16954     16952     16955     16957
     16954     16952     16955     16958     16955     16958     16961     16962
     16955     16958     16961     16963     16955     16958     16961     16964
     16956     16955     16958     16959     16956     16955     16958     16960
     16956     16955     16958     16961     16957     16955     16958     16959
     16957     16955     16958     16960     16957     16955     16958     16961
     16959     16958     16961     16962     16959     16958     16961     16963
     16959     16958     16961     16964     16960     16958     16961     16962
     16960     16958     16961     16963     16960     16958     16961     16964
     16965     16968     16971     16972     16965     16968     16971     16973
     16965     16968     16971     16974     16966     16965     16968     16969
     16966     16965     16968     16970     16966     16965     16968     16971
     16967     16965     16968     16969     16967     16965     16968     16970
     16967     16965     16968     16971     16968     16971     16974     16975
     16968     16971     16974     16976     16968     16971     16974     16977
     16969     16968     16971     16972     16969     16968     16971     16973
     16969     16968     16971     16974     16970     16968     16971     16972
     16970     16968     16971     16973     16970     16968     16971     16974
     16971     16974     16977     16978     16971     16974     16977     16979
     16971     16974     16977     16980     16972     16971     16974     16975
     16972     16971     16974     16976     16972     16971     16974     16977
     16973     16971     16974     16975     16973     16971     16974     16976
     16973     16971     16974     16977     16974     16977     16980     16981
     16974     16977     16980     16982     16974     16977     16980     16983
     16975     16974     16977     16978     16975     16974     16977     16979
     16975     16974     16977     16980     16976     16974     16977     16978
     16976     16974     16977     16979     16976     16974     16977     16980
     16977     16980     16983     16984     16977     16980     16983     16985
     16977     16980     16983     16986     16978     16977     16980     16981
     16978     16977     16980     16982     16978     16977     16980     16983
     16979     16977     16980     16981     16979     16977     16980     16982
     16979     16977     16980     16983     16980     16983     16986     16987
     16980     16983     16986     16988     16980     16983     16986     16989
     16981     16980     16983     16984     16981     16980     16983     16985
     16981     16980     16983     16986     16982     16980     16983     16984
     16982     16980     16983     16985     16982     16980     16983     16986
     16983     16986     16989     16990     16983     16986     16989     16991
     16983     16986     16989     16992     16984     16983     16986     16987
     16984     16983     16986     16988     16984     16983     16986     16989
     16985     16983     16986     16987     16985     16983     16986     16988
     16985     16983     16986     16989     16986     16989     16992     16993
     16986     16989     16992     16994     16986     16989     16992     16995
     16987     16986     16989     16990     16987     16986     16989     16991
     16987     16986     16989     16992     16988     16986     16989     16990
     16988     16986     16989     16991     16988     16986     16989     16992
     16989     16992     16995     16996     16989     16992     16995     16997
     16989     16992     16995     16998     16990     16989     16992     16993
     16990     16989     16992     16994     16990     16989     16992     16995
     16991     16989     16992     16993     16991     16989     16992     16994
     16991     16989     16992     16995     16992     16995     16998     16999
     16992     16995     16998     17000     16992     16995     16998     17001
     16993     16992     16995     16996     16993     16992     16995     16997
     16993     16992     16995     16998     16994     16992     16995     16996
     16994     16992     16995     16997     16994     16992     16995     16998
     16995     16998     17001     17002     16995     16998     17001     17003
     16995     16998     17001     17004     16996     16995     16998     16999
     16996     16995     16998     17000     16996     16995     16998     17001
     16997     16995     16998     16999     16997     16995     16998     17000
     16997     16995     16998     17001     16998     17001     17004     17005
     16998     17001     17004     17006     16998     17001     17004     17007
     16999     16998     17001     17002     16999     16998     17001     17003
     16999     16998     17001     17004     17000     16998     17001     17002
     17000     16998     17001     17003     17000     16998     17001     17004
     17001     17004     17007     17008     17001     17004     17007     17009
     17001     17004     17007     17010     17002     17001     17004     17005
     17002     17001     17004     17006     17002     17001     17004     17007
     17003     17001     17004     17005     17003     17001     17004     17006
     17003     17001     17004     17007     17004     17007     17010     17011
     17004     17007     17010     17012     17004     17007     17010     17013
     17005     17004     17007     17008     17005     17004     17007     17009
     17005     17004     17007     17010     17006     17004     17007     17008
     17006     17004     17007     17009     17006     17004     17007     17010
     17008     17007     17010     17011     17008     17007     17010     17012
     17008     17007     17010     17013     17009     17007     17010     17011
     17009     17007     17010     17012     17009     17007     17010     17013
     17014     17018     17021     17022     17014     17018     17021     17023
     17014     17018     17021     17027     17015     17014     17018     17019
     17015     17014     17018     17020     17015     17014     17018     17021
     17016     17014     17018     17019     17016     17014     17018     17020
     17016     17014     17018     17021     17017     17014     17018     17019
     17017     17014     17018     17020     17017     17014     17018     17021
     17018     17021     17027     17024     17019     17018     17021     17022
     17019     17018     17021     17023     17019     17018     17021     17027
     17020     17018     17021     17022     17020     17018     17021     17023
     17020     17018     17021     17027     17021     17027     17024     17025
     17021     17027     17024     17026     17021     17027     17024     17028
     17022     17021     17027     17024     17023     17021     17027     17024
     17024     17028     17029     17030     17024     17028     17029     17031
     17024     17028     17029     17032     17025     17024     17028     17029
     17026     17024     17028     17029     17027     17024     17028     17029
     17028     17029     17032     17033     17028     17029     17032     17034
     17028     17029     17032     17040     17029     17032     17034     17035
     17029     17032     17040     17041     17029     17032     17040     17042
     17029     17032     17040     17043     17030     17029     17032     17033
     17030     17029     17032     17034     17030     17029     17032     17040
     17031     17029     17032     17033     17031     17029     17032     17034
     17031     17029     17032     17040     17032     17034     17035     17036
     17032     17034     17035     17037     17032     17040     17043     17044
     17033     17032     17034     17035     17033     17032     17040     17041
     17033     17032     17040     17042     17033     17032     17040     17043
     17034     17032     17040     17041     17034     17032     17040     17042
     17034     17032     17040     17043     17034     17035     17037     17038
     17034     17035     17037     17039     17034     17035     17037     17049
     17035     17034     17032     17040     17035     17037     17049     17050
     17035     17037     17049     17051     17035     17037     17049     17052
     17036     17035     17037     17038     17036     17035     17037     17039
     17036     17035     17037     17049     17037     17049     17052     17053
     17037     17049     17052     17054     17037     17049     17052     17055
     17038     17037     17049     17050     17038     17037     17049     17051
     17038     17037     17049     17052     17039     17037     17049     17050
     17039     17037     17049     17051     17039     17037     17049     17052
     17040     17043     17044     17045     17040     17043     17044     17046
     17041     17040     17043     17044     17042     17040     17043     17044
     17043     17044     17046     17047     17043     17044     17046     17048
     17043     17044     17046     17096     17044     17046     17096     17097
     17044     17046     17096     17098     17044     17046     17096     17099
     17045     17044     17046     17047     17045     17044     17046     17048
     17045     17044     17046     17096     17046     17096     17099     17100
     17046     17096     17099     17101     17046     17096     17099     17102
     17047     17046     17096     17097     17047     17046     17096     17098
     17047     17046     17096     17099     17048     17046     17096     17097
     17048     17046     17096     17098     17048     17046     17096     17099
     17049     17052     17055     17056     17049     17052     17055     17057
     17050     17049     17052     17053     17050     17049     17052     17054
     17050     17049     17052     17055     17051     17049     17052     17053
     17051     17049     17052     17054     17051     17049     17052     17055
     17052     17055     17057     17058     17052     17055     17057     17059
     17053     17052     17055     17056     17053     17052     17055     17057
     17054     17052     17055     17056     17054     17052     17055     17057
     17055     17057     17059     17060     17055     17057     17059     17061
     17055     17057     17059     17062     17056     17055     17057     17058
     17056     17055     17057     17059     17057     17059     17062     17063
     17057     17059     17062     17064     17058     17057     17059     17060
     17058     17057     17059     17061     17058     17057     17059     17062
     17059     17062     17064     17065     17059     17062     17064     17066
     17060     17059     17062     17063     17060     17059     17062     17064
     17061     17059     17062     17063     17061     17059     17062     17064
     17062     17064     17066     17067     17062     17064     17066     17068
     17062     17064     17066     17069     17063     17062     17064     17065
     17063     17062     17064     17066     17064     17066     17069     17070
     17064     17066     17069     17071     17065     17064     17066     17067
     17065     17064     17066     17068     17065     17064     17066     17069
     17066     17069     17071     17072     17066     17069     17071     17073
     17067     17066     17069     17070     17067     17066     17069     17071
     17068     17066     17069     17070     17068     17066     17069     17071
     17069     17071     17073     17074     17069     17071     17073     17075
     17069     17071     17073     17076     17070     17069     17071     17072
     17070     17069     17071     17073     17071     17073     17076     17077
     17071     17073     17076     17078     17072     17071     17073     17074
     17072     17071     17073     17075     17072     17071     17073     17076
     17073     17076     17078     17079     17073     17076     17078     17080
     17074     17073     17076     17077     17074     17073     17076     17078
     17075     17073     17076     17077     17075     17073     17076     17078
     17076     17078     17080     17081     17076     17078     17080     17082
     17076     17078     17080     17083     17077     17076     17078     17079
     17077     17076     17078     17080     17078     17080     17083     17084
     17078     17080     17083     17085     17078     17080     17083     17086
     17079     17078     17080     17081     17079     17078     17080     17082
     17079     17078     17080     17083     17080     17083     17086     17087
     17080     17083     17086     17088     17080     17083     17086     17089
     17081     17080     17083     17084     17081     17080     17083     17085
     17081     17080     17083     17086     17082     17080     17083     17084
     17082     17080     17083     17085     17082     17080     17083     17086
     17083     17086     17089     17090     17083     17086     17089     17091
     17083     17086     17089     17092     17084     17083     17086     17087
     17084     17083     17086     17088     17084     17083     17086     17089
     17085     17083     17086     17087     17085     17083     17086     17088
     17085     17083     17086     17089     17086     17089     17092     17093
     17086     17089     17092     17094     17086     17089     17092     17095
     17087     17086     17089     17090     17087     17086     17089     17091
     17087     17086     17089     17092     17088     17086     17089     17090
     17088     17086     17089     17091     17088     17086     17089     17092
     17090     17089     17092     17093     17090     17089     17092     17094
     17090     17089     17092     17095     17091     17089     17092     17093
     17091     17089     17092     17094     17091     17089     17092     17095
     17096     17099     17102     17103     17096     17099     17102     17104
     17096     17099     17102     17105     17097     17096     17099     17100
     17097     17096     17099     17101     17097     17096     17099     17102
     17098     17096     17099     17100     17098     17096     17099     17101
     17098     17096     17099     17102     17099     17102     17105     17106
     17099     17102     17105     17107     17099     17102     17105     17108
     17100     17099     17102     17103     17100     17099     17102     17104
     17100     17099     17102     17105     17101     17099     17102     17103
     17101     17099     17102     17104     17101     17099     17102     17105
     17102     17105     17108     17109     17102     17105     17108     17110
     17102     17105     17108     17111     17103     17102     17105     17106
     17103     17102     17105     17107     17103     17102     17105     17108
     17104     17102     17105     17106     17104     17102     17105     17107
     17104     17102     17105     17108     17105     17108     17111     17112
     17105     17108     17111     17113     17105     17108     17111     17114
     17106     17105     17108     17109     17106     17105     17108     17110
     17106     17105     17108     17111     17107     17105     17108     17109
     17107     17105     17108     17110     17107     17105     17108     17111
     17108     17111     17114     17115     17108     17111     17114     17116
     17108     17111     17114     17117     17109     17108     17111     17112
     17109     17108     17111     17113     17109     17108     17111     17114
     17110     17108     17111     17112     17110     17108     17111     17113
     17110     17108     17111     17114     17111     17114     17117     17118
     17111     17114     17117     17119     17111     17114     17117     17120
     17112     17111     17114     17115     17112     17111     17114     17116
     17112     17111     17114     17117     17113     17111     17114     17115
     17113     17111     17114     17116     17113     17111     17114     17117
     17114     17117     17120     17121     17114     17117     17120     17122
     17114     17117     17120     17123     17115     17114     17117     17118
     17115     17114     17117     17119     17115     17114     17117     17120
     17116     17114     17117     17118     17116     17114     17117     17119
     17116     17114     17117     17120     17117     17120     17123     17124
     17117     17120     17123     17125     17117     17120     17123     17126
     17118     17117     17120     17121     17118     17117     17120     17122
     17118     17117     17120     17123     17119     17117     17120     17121
     17119     17117     17120     17122     17119     17117     17120     17123
     17120     17123     17126     17127     17120     17123     17126     17128
     17120     17123     17126     17129     17121     17120     17123     17124
     17121     17120     17123     17125     17121     17120     17123     17126
     17122     17120     17123     17124     17122     17120     17123     17125
     17122     17120     17123     17126     17123     17126     17129     17130
     17123     17126     17129     17131     17123     17126     17129     17132
     17124     17123     17126     17127     17124     17123     17126     17128
     17124     17123     17126     17129     17125     17123     17126     17127
     17125     17123     17126     17128     17125     17123     17126     17129
     17126     17129     17132     17133     17126     17129     17132     17134
     17126     17129     17132     17135     17127     17126     17129     17130
     17127     17126     17129     17131     17127     17126     17129     17132
     17128     17126     17129     17130     17128     17126     17129     17131
     17128     17126     17129     17132     17129     17132     17135     17136
     17129     17132     17135     17137     17129     17132     17135     17138
     17130     17129     17132     17133     17130     17129     17132     17134
     17130     17129     17132     17135     17131     17129     17132     17133
     17131     17129     17132     17134     17131     17129     17132     17135
     17132     17135     17138     17139     17132     17135     17138     17140
     17132     17135     17138     17141     17133     17132     17135     17136
     17133     17132     17135     17137     17133     17132     17135     17138
     17134     17132     17135     17136     17134     17132     17135     17137
     17134     17132     17135     17138     17135     17138     17141     17142
     17135     17138     17141     17143     17135     17138     17141     17144
     17136     17135     17138     17139     17136     17135     17138     17140
     17136     17135     17138     17141     17137     17135     17138     17139
     17137     17135     17138     17140     17137     17135     17138     17141
     17139     17138     17141     17142     17139     17138     17141     17143
     17139     17138     17141     17144     17140     17138     17141     17142
     17140     17138     17141     17143     17140     17138     17141     17144
     17145     17149     17152     17153     17145     17149     17152     17183
     17145     17191     17188     17183     17145     17191     17188     17189
     17145     17191     17188     17190     17146     17145     17147     17148
     17146     17145     17149     17150     17146     17145     17149     17151
     17146     17145     17149     17152     17146     17145     17191     17188
     17146     17145     17191     17192     17146     17145     17191     17193
     17147     17145     17149     17150     17147     17145     17149     17151
     17147     17145     17149     17152     17147     17145     17191     17188
     17147     17145     17191     17192     17147     17145     17191     17193
     17148     17147     17145     17149     17148     17147     17145     17191
     17149     17145     17191     17188     17149     17145     17191     17192
     17149     17145     17191     17193     17149     17152     17153     17154
     17149     17152     17153     17155     17149     17152     17183     17181
     17149     17152     17183     17184     17149     17152     17183     17188
     17150     17149     17145     17191     17150     17149     17152     17153
     17150     17149     17152     17183     17151     17149     17145     17191
     17151     17149     17152     17153     17151     17149     17152     17183
     17152     17149     17145     17191     17152     17153     17155     17156
     17152     17153     17155     17157     17152     17153     17155     17158
     17152     17183     17181     17158     17152     17183     17181     17178
     17152     17183     17181     17182     17152     17183     17184     17185
     17152     17183     17184     17186     17152     17183     17184     17187
     17152     17183     17188     17189     17152     17183     17188     17190
     17152     17183     17188     17191     17153     17152     17183     17181
     17153     17152     17183     17184     17153     17152     17183     17188
     17153     17155     17158     17159     17153     17155     17158     17160
     17153     17155     17158     17181     17154     17153     17152     17183
     17154     17153     17155     17156     17154     17153     17155     17157
     17154     17153     17155     17158     17155     17153     17152     17183
     17155     17158     17160     17161     17155     17158     17160     17162
     17155     17158     17160     17170     17155     17158     17181     17178
     17155     17158     17181     17182     17155     17158     17181     17183
     17156     17155     17158     17159     17156     17155     17158     17160
     17156     17155     17158     17181     17157     17155     17158     17159
     17157     17155     17158     17160     17157     17155     17158     17181
     17158     17160     17162     17163     17158     17160     17162     17164
     17158     17160     17162     17165     17158     17160     17170     17168
     17158     17160     17170     17171     17158     17160     17170     17175
     17158     17181     17178     17175     17158     17181     17178     17179
     17158     17181     17178     17180     17158     17181     17183     17184
     17158     17181     17183     17188     17159     17158     17160     17161
     17159     17158     17160     17162     17159     17158     17160     17170
     17159     17158     17181     17178     17159     17158     17181     17182
     17159     17158     17181     17183     17160     17158     17181     17178
     17160     17158     17181     17182     17160     17158     17181     17183
     17160     17162     17165     17166     17160     17162     17165     17167
     17160     17162     17165     17168     17160     17170     17168     17165
     17160     17170     17168     17169     17160     17170     17168     17194
     17160     17170     17171     17172     17160     17170     17171     17173
     17160     17170     17171     17174     17160     17170     17175     17176
     17160     17170     17175     17177     17160     17170     17175     17178
     17161     17160     17158     17181     17161     17160     17162     17163
     17161     17160     17162     17164     17161     17160     17162     17165
     17161     17160     17170     17168     17161     17160     17170     17171
     17161     17160     17170     17175     17162     17160     17158     17181
     17162     17160     17170     17168     17162     17160     17170     17171
     17162     17160     17170     17175     17162     17165     17168     17169
     17162     17165     17168     17170     17162     17165     17168     17194
     17163     17162     17160     17170     17163     17162     17165     17166
     17163     17162     17165     17167     17163     17162     17165     17168
     17164     17162     17160     17170     17164     17162     17165     17166
     17164     17162     17165     17167     17164     17162     17165     17168
     17165     17162     17160     17170     17165     17168     17170     17171
     17165     17168     17170     17175     17165     17168     17194     17195
     17165     17168     17194     17196     17165     17168     17194     17200
     17166     17165     17168     17169     17166     17165     17168     17170
     17166     17165     17168     17194     17167     17165     17168     17169
     17167     17165     17168     17170     17167     17165     17168     17194
     17168     17170     17171     17172     17168     17170     17171     17173
     17168     17170     17171     17174     17168     17170     17175     17176
     17168     17170     17175     17177     17168     17170     17175     17178
     17168     17194     17196     17197     17168     17194     17196     17198
     17168     17194     17196     17199     17168     17194     17200     17201
     17168     17194     17200     17202     17168     17194     17200     17203
     17169     17168     17170     17171     17169     17168     17170     17175
     17169     17168     17194     17195     17169     17168     17194     17196
     17169     17168     17194     17200     17170     17160     17158     17181
     17170     17168     17194     17195     17170     17168     17194     17196
     17170     17168     17194     17200     17170     17175     17178     17179
     17170     17175     17178     17180     17170     17175     17178     17181
     17171     17170     17168     17194     17171     17170     17175     17176
     17171     17170     17175     17177     17171     17170     17175     17178
     17172     17171     17170     17175     17173     17171     17170     17175
     17174     17171     17170     17175     17175     17170     17168     17194
     17175     17178     17181     17182     17175     17178     17181     17183
     17176     17175     17178     17179     17176     17175     17178     17180
     17176     17175     17178     17181     17177     17175     17178     17179
     17177     17175     17178     17180     17177     17175     17178     17181
     17178     17181     17183     17184     17178     17181     17183     17188
     17179     17178     17181     17182     17179     17178     17181     17183
     17180     17178     17181     17182     17180     17178     17181     17183
     17181     17183     17184     17185     17181     17183     17184     17186
     17181     17183     17184     17187     17181     17183     17188     17189
     17181     17183     17188     17190     17181     17183     17188     17191
     17182     17181     17183     17184     17182     17181     17183     17188
     17183     17188     17191     17192     17183     17188     17191     17193
     17184     17183     17188     17189     17184     17183     17188     17190
     17184     17183     17188     17191     17185     17184     17183     17188
     17186     17184     17183     17188     17187     17184     17183     17188
     17189     17188     17191     17192     17189     17188     17191     17193
     17190     17188     17191     17192     17190     17188     17191     17193
     17194     17200     17203     17204     17194     17200     17203     17205
     17194     17200     17203     17206     17195     17194     17196     17197
     17195     17194     17196     17198     17195     17194     17196     17199
     17195     17194     17200     17201     17195     17194     17200     17202
     17195     17194     17200     17203     17196     17194     17200     17201
     17196     17194     17200     17202     17196     17194     17200     17203
     17197     17196     17194     17200     17198     17196     17194     17200
     17199     17196     17194     17200     17200     17203     17206     17207
     17200     17203     17206     17208     17200     17203     17206     17209
     17201     17200     17203     17204     17201     17200     17203     17205
     17201     17200     17203     17206     17202     17200     17203     17204
     17202     17200     17203     17205     17202     17200     17203     17206
     17203     17206     17209     17210     17203     17206     17209     17211
     17203     17206     17209     17215     17204     17203     17206     17207
     17204     17203     17206     17208     17204     17203     17206     17209
     17205     17203     17206     17207     17205     17203     17206     17208
     17205     17203     17206     17209     17206     17209     17211     17212
     17206     17209     17211     17213     17206     17209     17211     17214
     17206     17209     17215     17216     17206     17209     17215     17217
     17206     17209     17215     17218     17207     17206     17209     17210
     17207     17206     17209     17211     17207     17206     17209     17215
     17208     17206     17209     17210     17208     17206     17209     17211
     17208     17206     17209     17215     17210     17209     17211     17212
     17210     17209     17211     17213     17210     17209     17211     17214
     17210     17209     17215     17216     17210     17209     17215     17217
     17210     17209     17215     17218     17211     17209     17215     17216
     17211     17209     17215     17217     17211     17209     17215     17218
     17212     17211     17209     17215     17213     17211     17209     17215
     17214     17211     17209     17215     17219     17220     17235     17236
     17219     17220     17235     17237     17219     17220     17235     17241
     17220     17219     17223     17224     17220     17219     17223     17225
     17220     17219     17223     17226     17220     17219     17227     17228
     17220     17219     17227     17229     17220     17219     17227     17230
     17220     17219     17231     17232     17220     17219     17231     17233
     17220     17219     17231     17234     17220     17235     17241     17238
     17221     17220     17219     17223     17221     17220     17219     17227
     17221     17220     17219     17231     17221     17220     17235     17236
     17221     17220     17235     17237     17221     17220     17235     17241
     17222     17220     17219     17223     17222     17220     17219     17227
     17222     17220     17219     17231     17222     17220     17235     17236
     17222     17220     17235     17237     17222     17220     17235     17241
     17223     17219     17220     17235     17223     17219     17227     17228
     17223     17219     17227     17229     17223     17219     17227     17230
     17223     17219     17231     17232     17223     17219     17231     17233
     17223     17219     17231     17234     17224     17223     17219     17227
     17224     17223     17219     17231     17225     17223     17219     17227
     17225     17223     17219     17231     17226     17223     17219     17227
     17226     17223     17219     17231     17227     17219     17220     17235
     17227     17219     17231     17232     17227     17219     17231     17233
     17227     17219     17231     17234     17228     17227     17219     17231
     17229     17227     17219     17231     17230     17227     17219     17231
     17231     17219     17220     17235     17235     17241     17238     17239
     17235     17241     17238     17240     17235     17241     17238     17242
     17236     17235     17241     17238     17237     17235     17241     17238
     17238     17242     17243     17244     17238     17242     17243     17245
     17238     17242     17243     17246     17239     17238     17242     17243
     17240     17238     17242     17243     17241     17238     17242     17243
     17242     17243     17246     17247     17242     17243     17246     17248
     17242     17243     17246     17254     17243     17246     17248     17249
     17243     17246     17254     17255     17243     17246     17254     17256
     17243     17246     17254     17257     17244     17243     17246     17247
     17244     17243     17246     17248     17244     17243     17246     17254
     17245     17243     17246     17247     17245     17243     17246     17248
     17245     17243     17246     17254     17246     17248     17249     17250
     17246     17248     17249     17251     17246     17254     17257     17258
     17247     17246     17248     17249     17247     17246     17254     17255
     17247     17246     17254     17256     17247     17246     17254     17257
     17248     17246     17254     17255     17248     17246     17254     17256
     17248     17246     17254     17257     17248     17249     17251     17252
     17248     17249     17251     17253     17248     17249     17251     17263
     17249     17248     17246     17254     17249     17251     17263     17264
     17249     17251     17263     17265     17249     17251     17263     17266
     17250     17249     17251     17252     17250     17249     17251     17253
     17250     17249     17251     17263     17251     17263     17266     17267
     17251     17263     17266     17268     17251     17263     17266     17269
     17252     17251     17263     17264     17252     17251     17263     17265
     17252     17251     17263     17266     17253     17251     17263     17264
     17253     17251     17263     17265     17253     17251     17263     17266
     17254     17257     17258     17259     17254     17257     17258     17260
     17255     17254     17257     17258     17256     17254     17257     17258
     17257     17258     17260     17261     17257     17258     17260     17262
     17257     17258     17260     17310     17258     17260     17310     17311
     17258     17260     17310     17312     17258     17260     17310     17313
     17259     17258     17260     17261     17259     17258     17260     17262
     17259     17258     17260     17310     17260     17310     17313     17314
     17260     17310     17313     17315     17260     17310     17313     17316
     17261     17260     17310     17311     17261     17260     17310     17312
     17261     17260     17310     17313     17262     17260     17310     17311
     17262     17260     17310     17312     17262     17260     17310     17313
     17263     17266     17269     17270     17263     17266     17269     17271
     17264     17263     17266     17267     17264     17263     17266     17268
     17264     17263     17266     17269     17265     17263     17266     17267
     17265     17263     17266     17268     17265     17263     17266     17269
     17266     17269     17271     17272     17266     17269     17271     17273
     17267     17266     17269     17270     17267     17266     17269     17271
     17268     17266     17269     17270     17268     17266     17269     17271
     17269     17271     17273     17274     17269     17271     17273     17275
     17269     17271     17273     17276     17270     17269     17271     17272
     17270     17269     17271     17273     17271     17273     17276     17277
     17271     17273     17276     17278     17272     17271     17273     17274
     17272     17271     17273     17275     17272     17271     17273     17276
     17273     17276     17278     17279     17273     17276     17278     17280
     17274     17273     17276     17277     17274     17273     17276     17278
     17275     17273     17276     17277     17275     17273     17276     17278
     17276     17278     17280     17281     17276     17278     17280     17282
     17276     17278     17280     17283     17277     17276     17278     17279
     17277     17276     17278     17280     17278     17280     17283     17284
     17278     17280     17283     17285     17279     17278     17280     17281
     17279     17278     17280     17282     17279     17278     17280     17283
     17280     17283     17285     17286     17280     17283     17285     17287
     17281     17280     17283     17284     17281     17280     17283     17285
     17282     17280     17283     17284     17282     17280     17283     17285
     17283     17285     17287     17288     17283     17285     17287     17289
     17283     17285     17287     17290     17284     17283     17285     17286
     17284     17283     17285     17287     17285     17287     17290     17291
     17285     17287     17290     17292     17286     17285     17287     17288
     17286     17285     17287     17289     17286     17285     17287     17290
     17287     17290     17292     17293     17287     17290     17292     17294
     17288     17287     17290     17291     17288     17287     17290     17292
     17289     17287     17290     17291     17289     17287     17290     17292
     17290     17292     17294     17295     17290     17292     17294     17296
     17290     17292     17294     17297     17291     17290     17292     17293
     17291     17290     17292     17294     17292     17294     17297     17298
     17292     17294     17297     17299     17292     17294     17297     17300
     17293     17292     17294     17295     17293     17292     17294     17296
     17293     17292     17294     17297     17294     17297     17300     17301
     17294     17297     17300     17302     17294     17297     17300     17303
     17295     17294     17297     17298     17295     17294     17297     17299
     17295     17294     17297     17300     17296     17294     17297     17298
     17296     17294     17297     17299     17296     17294     17297     17300
     17297     17300     17303     17304     17297     17300     17303     17305
     17297     17300     17303     17306     17298     17297     17300     17301
     17298     17297     17300     17302     17298     17297     17300     17303
     17299     17297     17300     17301     17299     17297     17300     17302
     17299     17297     17300     17303     17300     17303     17306     17307
     17300     17303     17306     17308     17300     17303     17306     17309
     17301     17300     17303     17304     17301     17300     17303     17305
     17301     17300     17303     17306     17302     17300     17303     17304
     17302     17300     17303     17305     17302     17300     17303     17306
     17304     17303     17306     17307     17304     17303     17306     17308
     17304     17303     17306     17309     17305     17303     17306     17307
     17305     17303     17306     17308     17305     17303     17306     17309
     17310     17313     17316     17317     17310     17313     17316     17318
     17310     17313     17316     17319     17311     17310     17313     17314
     17311     17310     17313     17315     17311     17310     17313     17316
     17312     17310     17313     17314     17312     17310     17313     17315
     17312     17310     17313     17316     17313     17316     17319     17320
     17313     17316     17319     17321     17313     17316     17319     17322
     17314     17313     17316     17317     17314     17313     17316     17318
     17314     17313     17316     17319     17315     17313     17316     17317
     17315     17313     17316     17318     17315     17313     17316     17319
     17316     17319     17322     17323     17316     17319     17322     17324
     17316     17319     17322     17325     17317     17316     17319     17320
     17317     17316     17319     17321     17317     17316     17319     17322
     17318     17316     17319     17320     17318     17316     17319     17321
     17318     17316     17319     17322     17319     17322     17325     17326
     17319     17322     17325     17327     17319     17322     17325     17328
     17320     17319     17322     17323     17320     17319     17322     17324
     17320     17319     17322     17325     17321     17319     17322     17323
     17321     17319     17322     17324     17321     17319     17322     17325
     17322     17325     17328     17329     17322     17325     17328     17330
     17322     17325     17328     17331     17323     17322     17325     17326
     17323     17322     17325     17327     17323     17322     17325     17328
     17324     17322     17325     17326     17324     17322     17325     17327
     17324     17322     17325     17328     17325     17328     17331     17332
     17325     17328     17331     17333     17325     17328     17331     17334
     17326     17325     17328     17329     17326     17325     17328     17330
     17326     17325     17328     17331     17327     17325     17328     17329
     17327     17325     17328     17330     17327     17325     17328     17331
     17328     17331     17334     17335     17328     17331     17334     17336
     17328     17331     17334     17337     17329     17328     17331     17332
     17329     17328     17331     17333     17329     17328     17331     17334
     17330     17328     17331     17332     17330     17328     17331     17333
     17330     17328     17331     17334     17331     17334     17337     17338
     17331     17334     17337     17339     17331     17334     17337     17340
     17332     17331     17334     17335     17332     17331     17334     17336
     17332     17331     17334     17337     17333     17331     17334     17335
     17333     17331     17334     17336     17333     17331     17334     17337
     17334     17337     17340     17341     17334     17337     17340     17342
     17334     17337     17340     17343     17335     17334     17337     17338
     17335     17334     17337     17339     17335     17334     17337     17340
     17336     17334     17337     17338     17336     17334     17337     17339
     17336     17334     17337     17340     17337     17340     17343     17344
     17337     17340     17343     17345     17337     17340     17343     17346
     17338     17337     17340     17341     17338     17337     17340     17342
     17338     17337     17340     17343     17339     17337     17340     17341
     17339     17337     17340     17342     17339     17337     17340     17343
     17340     17343     17346     17347     17340     17343     17346     17348
     17340     17343     17346     17349     17341     17340     17343     17344
     17341     17340     17343     17345     17341     17340     17343     17346
     17342     17340     17343     17344     17342     17340     17343     17345
     17342     17340     17343     17346     17343     17346     17349     17350
     17343     17346     17349     17351     17343     17346     17349     17352
     17344     17343     17346     17347     17344     17343     17346     17348
     17344     17343     17346     17349     17345     17343     17346     17347
     17345     17343     17346     17348     17345     17343     17346     17349
     17346     17349     17352     17353     17346     17349     17352     17354
     17346     17349     17352     17355     17347     17346     17349     17350
     17347     17346     17349     17351     17347     17346     17349     17352
     17348     17346     17349     17350     17348     17346     17349     17351
     17348     17346     17349     17352     17349     17352     17355     17356
     17349     17352     17355     17357     17349     17352     17355     17358
     17350     17349     17352     17353     17350     17349     17352     17354
     17350     17349     17352     17355     17351     17349     17352     17353
     17351     17349     17352     17354     17351     17349     17352     17355
     17353     17352     17355     17356     17353     17352     17355     17357
     17353     17352     17355     17358     17354     17352     17355     17356
     17354     17352     17355     17357     17354     17352     17355     17358
     17359     17363     17366     17367     17359     17363     17366     17397
     17359     17405     17402     17397     17359     17405     17402     17403
     17359     17405     17402     17404     17360     17359     17361     17362
     17360     17359     17363     17364     17360     17359     17363     17365
     17360     17359     17363     17366     17360     17359     17405     17402
     17360     17359     17405     17406     17360     17359     17405     17407
     17361     17359     17363     17364     17361     17359     17363     17365
     17361     17359     17363     17366     17361     17359     17405     17402
     17361     17359     17405     17406     17361     17359     17405     17407
     17362     17361     17359     17363     17362     17361     17359     17405
     17363     17359     17405     17402     17363     17359     17405     17406
     17363     17359     17405     17407     17363     17366     17367     17368
     17363     17366     17367     17369     17363     17366     17397     17395
     17363     17366     17397     17398     17363     17366     17397     17402
     17364     17363     17359     17405     17364     17363     17366     17367
     17364     17363     17366     17397     17365     17363     17359     17405
     17365     17363     17366     17367     17365     17363     17366     17397
     17366     17363     17359     17405     17366     17367     17369     17370
     17366     17367     17369     17371     17366     17367     17369     17372
     17366     17397     17395     17372     17366     17397     17395     17392
     17366     17397     17395     17396     17366     17397     17398     17399
     17366     17397     17398     17400     17366     17397     17398     17401
     17366     17397     17402     17403     17366     17397     17402     17404
     17366     17397     17402     17405     17367     17366     17397     17395
     17367     17366     17397     17398     17367     17366     17397     17402
     17367     17369     17372     17373     17367     17369     17372     17374
     17367     17369     17372     17395     17368     17367     17366     17397
     17368     17367     17369     17370     17368     17367     17369     17371
     17368     17367     17369     17372     17369     17367     17366     17397
     17369     17372     17374     17375     17369     17372     17374     17376
     17369     17372     17374     17384     17369     17372     17395     17392
     17369     17372     17395     17396     17369     17372     17395     17397
     17370     17369     17372     17373     17370     17369     17372     17374
     17370     17369     17372     17395     17371     17369     17372     17373
     17371     17369     17372     17374     17371     17369     17372     17395
     17372     17374     17376     17377     17372     17374     17376     17378
     17372     17374     17376     17379     17372     17374     17384     17382
     17372     17374     17384     17385     17372     17374     17384     17389
     17372     17395     17392     17389     17372     17395     17392     17393
     17372     17395     17392     17394     17372     17395     17397     17398
     17372     17395     17397     17402     17373     17372     17374     17375
     17373     17372     17374     17376     17373     17372     17374     17384
     17373     17372     17395     17392     17373     17372     17395     17396
     17373     17372     17395     17397     17374     17372     17395     17392
     17374     17372     17395     17396     17374     17372     17395     17397
     17374     17376     17379     17380     17374     17376     17379     17381
     17374     17376     17379     17382     17374     17384     17382     17379
     17374     17384     17382     17383     17374     17384     17382     17408
     17374     17384     17385     17386     17374     17384     17385     17387
     17374     17384     17385     17388     17374     17384     17389     17390
     17374     17384     17389     17391     17374     17384     17389     17392
     17375     17374     17372     17395     17375     17374     17376     17377
     17375     17374     17376     17378     17375     17374     17376     17379
     17375     17374     17384     17382     17375     17374     17384     17385
     17375     17374     17384     17389     17376     17374     17372     17395
     17376     17374     17384     17382     17376     17374     17384     17385
     17376     17374     17384     17389     17376     17379     17382     17383
     17376     17379     17382     17384     17376     17379     17382     17408
     17377     17376     17374     17384     17377     17376     17379     17380
     17377     17376     17379     17381     17377     17376     17379     17382
     17378     17376     17374     17384     17378     17376     17379     17380
     17378     17376     17379     17381     17378     17376     17379     17382
     17379     17376     17374     17384     17379     17382     17384     17385
     17379     17382     17384     17389     17379     17382     17408     17409
     17379     17382     17408     17410     17379     17382     17408     17414
     17380     17379     17382     17383     17380     17379     17382     17384
     17380     17379     17382     17408     17381     17379     17382     17383
     17381     17379     17382     17384     17381     17379     17382     17408
     17382     17384     17385     17386     17382     17384     17385     17387
     17382     17384     17385     17388     17382     17384     17389     17390
     17382     17384     17389     17391     17382     17384     17389     17392
     17382     17408     17410     17411     17382     17408     17410     17412
     17382     17408     17410     17413     17382     17408     17414     17415
     17382     17408     17414     17416     17382     17408     17414     17417
     17383     17382     17384     17385     17383     17382     17384     17389
     17383     17382     17408     17409     17383     17382     17408     17410
     17383     17382     17408     17414     17384     17374     17372     17395
     17384     17382     17408     17409     17384     17382     17408     17410
     17384     17382     17408     17414     17384     17389     17392     17393
     17384     17389     17392     17394     17384     17389     17392     17395
     17385     17384     17382     17408     17385     17384     17389     17390
     17385     17384     17389     17391     17385     17384     17389     17392
     17386     17385     17384     17389     17387     17385     17384     17389
     17388     17385     17384     17389     17389     17384     17382     17408
     17389     17392     17395     17396     17389     17392     17395     17397
     17390     17389     17392     17393     17390     17389     17392     17394
     17390     17389     17392     17395     17391     17389     17392     17393
     17391     17389     17392     17394     17391     17389     17392     17395
     17392     17395     17397     17398     17392     17395     17397     17402
     17393     17392     17395     17396     17393     17392     17395     17397
     17394     17392     17395     17396     17394     17392     17395     17397
     17395     17397     17398     17399     17395     17397     17398     17400
     17395     17397     17398     17401     17395     17397     17402     17403
     17395     17397     17402     17404     17395     17397     17402     17405
     17396     17395     17397     17398     17396     17395     17397     17402
     17397     17402     17405     17406     17397     17402     17405     17407
     17398     17397     17402     17403     17398     17397     17402     17404
     17398     17397     17402     17405     17399     17398     17397     17402
     17400     17398     17397     17402     17401     17398     17397     17402
     17403     17402     17405     17406     17403     17402     17405     17407
     17404     17402     17405     17406     17404     17402     17405     17407
     17408     17414     17417     17418     17408     17414     17417     17419
     17408     17414     17417     17420     17409     17408     17410     17411
     17409     17408     17410     17412     17409     17408     17410     17413
     17409     17408     17414     17415     17409     17408     17414     17416
     17409     17408     17414     17417     17410     17408     17414     17415
     17410     17408     17414     17416     17410     17408     17414     17417
     17411     17410     17408     17414     17412     17410     17408     17414
     17413     17410     17408     17414     17414     17417     17420     17421
     17414     17417     17420     17422     17414     17417     17420     17423
     17415     17414     17417     17418     17415     17414     17417     17419
     17415     17414     17417     17420     17416     17414     17417     17418
     17416     17414     17417     17419     17416     17414     17417     17420
     17417     17420     17423     17424     17417     17420     17423     17425
     17417     17420     17423     17429     17418     17417     17420     17421
     17418     17417     17420     17422     17418     17417     17420     17423
     17419     17417     17420     17421     17419     17417     17420     17422
     17419     17417     17420     17423     17420     17423     17425     17426
     17420     17423     17425     17427     17420     17423     17425     17428
     17420     17423     17429     17430     17420     17423     17429     17431
     17420     17423     17429     17432     17421     17420     17423     17424
     17421     17420     17423     17425     17421     17420     17423     17429
     17422     17420     17423     17424     17422     17420     17423     17425
     17422     17420     17423     17429     17424     17423     17425     17426
     17424     17423     17425     17427     17424     17423     17425     17428
     17424     17423     17429     17430     17424     17423     17429     17431
     17424     17423     17429     17432     17425     17423     17429     17430
     17425     17423     17429     17431     17425     17423     17429     17432
     17426     17425     17423     17429     17427     17425     17423     17429
     17428     17425     17423     17429     17433     17437     17440     17441
     17433     17437     17440     17471     17433     17479     17476     17471
     17433     17479     17476     17477     17433     17479     17476     17478
     17434     17433     17435     17436     17434     17433     17437     17438
     17434     17433     17437     17439     17434     17433     17437     17440
     17434     17433     17479     17476     17434     17433     17479     17480
     17434     17433     17479     17481     17435     17433     17437     17438
     17435     17433     17437     17439     17435     17433     17437     17440
     17435     17433     17479     17476     17435     17433     17479     17480
     17435     17433     17479     17481     17436     17435     17433     17437
     17436     17435     17433     17479     17437     17433     17479     17476
     17437     17433     17479     17480     17437     17433     17479     17481
     17437     17440     17441     17442     17437     17440     17441     17443
     17437     17440     17471     17469     17437     17440     17471     17472
     17437     17440     17471     17476     17438     17437     17433     17479
     17438     17437     17440     17441     17438     17437     17440     17471
     17439     17437     17433     17479     17439     17437     17440     17441
     17439     17437     17440     17471     17440     17437     17433     17479
     17440     17441     17443     17444     17440     17441     17443     17445
     17440     17441     17443     17446     17440     17471     17469     17446
     17440     17471     17469     17466     17440     17471     17469     17470
     17440     17471     17472     17473     17440     17471     17472     17474
     17440     17471     17472     17475     17440     17471     17476     17477
     17440     17471     17476     17478     17440     17471     17476     17479
     17441     17440     17471     17469     17441     17440     17471     17472
     17441     17440     17471     17476     17441     17443     17446     17447
     17441     17443     17446     17448     17441     17443     17446     17469
     17442     17441     17440     17471     17442     17441     17443     17444
     17442     17441     17443     17445     17442     17441     17443     17446
     17443     17441     17440     17471     17443     17446     17448     17449
     17443     17446     17448     17450     17443     17446     17448     17458
     17443     17446     17469     17466     17443     17446     17469     17470
     17443     17446     17469     17471     17444     17443     17446     17447
     17444     17443     17446     17448     17444     17443     17446     17469
     17445     17443     17446     17447     17445     17443     17446     17448
     17445     17443     17446     17469     17446     17448     17450     17451
     17446     17448     17450     17452     17446     17448     17450     17453
     17446     17448     17458     17456     17446     17448     17458     17459
     17446     17448     17458     17463     17446     17469     17466     17463
     17446     17469     17466     17467     17446     17469     17466     17468
     17446     17469     17471     17472     17446     17469     17471     17476
     17447     17446     17448     17449     17447     17446     17448     17450
     17447     17446     17448     17458     17447     17446     17469     17466
     17447     17446     17469     17470     17447     17446     17469     17471
     17448     17446     17469     17466     17448     17446     17469     17470
     17448     17446     17469     17471     17448     17450     17453     17454
     17448     17450     17453     17455     17448     17450     17453     17456
     17448     17458     17456     17453     17448     17458     17456     17457
     17448     17458     17456     17482     17448     17458     17459     17460
     17448     17458     17459     17461     17448     17458     17459     17462
     17448     17458     17463     17464     17448     17458     17463     17465
     17448     17458     17463     17466     17449     17448     17446     17469
     17449     17448     17450     17451     17449     17448     17450     17452
     17449     17448     17450     17453     17449     17448     17458     17456
     17449     17448     17458     17459     17449     17448     17458     17463
     17450     17448     17446     17469     17450     17448     17458     17456
     17450     17448     17458     17459     17450     17448     17458     17463
     17450     17453     17456     17457     17450     17453     17456     17458
     17450     17453     17456     17482     17451     17450     17448     17458
     17451     17450     17453     17454     17451     17450     17453     17455
     17451     17450     17453     17456     17452     17450     17448     17458
     17452     17450     17453     17454     17452     17450     17453     17455
     17452     17450     17453     17456     17453     17450     17448     17458
     17453     17456     17458     17459     17453     17456     17458     17463
     17453     17456     17482     17483     17453     17456     17482     17484
     17453     17456     17482     17488     17454     17453     17456     17457
     17454     17453     17456     17458     17454     17453     17456     17482
     17455     17453     17456     17457     17455     17453     17456     17458
     17455     17453     17456     17482     17456     17458     17459     17460
     17456     17458     17459     17461     17456     17458     17459     17462
     17456     17458     17463     17464     17456     17458     17463     17465
     17456     17458     17463     17466     17456     17482     17484     17485
     17456     17482     17484     17486     17456     17482     17484     17487
     17456     17482     17488     17489     17456     17482     17488     17490
     17456     17482     17488     17491     17457     17456     17458     17459
     17457     17456     17458     17463     17457     17456     17482     17483
     17457     17456     17482     17484     17457     17456     17482     17488
     17458     17448     17446     17469     17458     17456     17482     17483
     17458     17456     17482     17484     17458     17456     17482     17488
     17458     17463     17466     17467     17458     17463     17466     17468
     17458     17463     17466     17469     17459     17458     17456     17482
     17459     17458     17463     17464     17459     17458     17463     17465
     17459     17458     17463     17466     17460     17459     17458     17463
     17461     17459     17458     17463     17462     17459     17458     17463
     17463     17458     17456     17482     17463     17466     17469     17470
     17463     17466     17469     17471     17464     17463     17466     17467
     17464     17463     17466     17468     17464     17463     17466     17469
     17465     17463     17466     17467     17465     17463     17466     17468
     17465     17463     17466     17469     17466     17469     17471     17472
     17466     17469     17471     17476     17467     17466     17469     17470
     17467     17466     17469     17471     17468     17466     17469     17470
     17468     17466     17469     17471     17469     17471     17472     17473
     17469     17471     17472     17474     17469     17471     17472     17475
     17469     17471     17476     17477     17469     17471     17476     17478
     17469     17471     17476     17479     17470     17469     17471     17472
     17470     17469     17471     17476     17471     17476     17479     17480
     17471     17476     17479     17481     17472     17471     17476     17477
     17472     17471     17476     17478     17472     17471     17476     17479
     17473     17472     17471     17476     17474     17472     17471     17476
     17475     17472     17471     17476     17477     17476     17479     17480
     17477     17476     17479     17481     17478     17476     17479     17480
     17478     17476     17479     17481     17482     17488     17491     17492
     17482     17488     17491     17493     17482     17488     17491     17494
     17483     17482     17484     17485     17483     17482     17484     17486
     17483     17482     17484     17487     17483     17482     17488     17489
     17483     17482     17488     17490     17483     17482     17488     17491
     17484     17482     17488     17489     17484     17482     17488     17490
     17484     17482     17488     17491     17485     17484     17482     17488
     17486     17484     17482     17488     17487     17484     17482     17488
     17488     17491     17494     17495     17488     17491     17494     17496
     17488     17491     17494     17497     17489     17488     17491     17492
     17489     17488     17491     17493     17489     17488     17491     17494
     17490     17488     17491     17492     17490     17488     17491     17493
     17490     17488     17491     17494     17491     17494     17497     17498
     17491     17494     17497     17499     17491     17494     17497     17503
     17492     17491     17494     17495     17492     17491     17494     17496
     17492     17491     17494     17497     17493     17491     17494     17495
     17493     17491     17494     17496     17493     17491     17494     17497
     17494     17497     17499     17500     17494     17497     17499     17501
     17494     17497     17499     17502     17494     17497     17503     17504
     17494     17497     17503     17505     17494     17497     17503     17506
     17495     17494     17497     17498     17495     17494     17497     17499
     17495     17494     17497     17503     17496     17494     17497     17498
     17496     17494     17497     17499     17496     17494     17497     17503
     17498     17497     17499     17500     17498     17497     17499     17501
     17498     17497     17499     17502     17498     17497     17503     17504
     17498     17497     17503     17505     17498     17497     17503     17506
     17499     17497     17503     17504     17499     17497     17503     17505
     17499     17497     17503     17506     17500     17499     17497     17503
     17501     17499     17497     17503     17502     17499     17497     17503
     17507     17511     17514     17515     17507     17511     17514     17516
     17507     17511     17514     17520     17508     17507     17511     17512
     17508     17507     17511     17513     17508     17507     17511     17514
     17509     17507     17511     17512     17509     17507     17511     17513
     17509     17507     17511     17514     17510     17507     17511     17512
     17510     17507     17511     17513     17510     17507     17511     17514
     17511     17514     17520     17517     17512     17511     17514     17515
     17512     17511     17514     17516     17512     17511     17514     17520
     17513     17511     17514     17515     17513     17511     17514     17516
     17513     17511     17514     17520     17514     17520     17517     17518
     17514     17520     17517     17519     17514     17520     17517     17521
     17515     17514     17520     17517     17516     17514     17520     17517
     17517     17521     17522     17523     17517     17521     17522     17524
     17517     17521     17522     17525     17518     17517     17521     17522
     17519     17517     17521     17522     17520     17517     17521     17522
     17521     17522     17525     17526     17521     17522     17525     17527
     17521     17522     17525     17533     17522     17525     17527     17528
     17522     17525     17533     17534     17522     17525     17533     17535
     17522     17525     17533     17536     17523     17522     17525     17526
     17523     17522     17525     17527     17523     17522     17525     17533
     17524     17522     17525     17526     17524     17522     17525     17527
     17524     17522     17525     17533     17525     17527     17528     17529
     17525     17527     17528     17530     17525     17533     17536     17537
     17526     17525     17527     17528     17526     17525     17533     17534
     17526     17525     17533     17535     17526     17525     17533     17536
     17527     17525     17533     17534     17527     17525     17533     17535
     17527     17525     17533     17536     17527     17528     17530     17531
     17527     17528     17530     17532     17527     17528     17530     17542
     17528     17527     17525     17533     17528     17530     17542     17543
     17528     17530     17542     17544     17528     17530     17542     17545
     17529     17528     17530     17531     17529     17528     17530     17532
     17529     17528     17530     17542     17530     17542     17545     17546
     17530     17542     17545     17547     17530     17542     17545     17548
     17531     17530     17542     17543     17531     17530     17542     17544
     17531     17530     17542     17545     17532     17530     17542     17543
     17532     17530     17542     17544     17532     17530     17542     17545
     17533     17536     17537     17538     17533     17536     17537     17539
     17534     17533     17536     17537     17535     17533     17536     17537
     17536     17537     17539     17540     17536     17537     17539     17541
     17536     17537     17539     17589     17537     17539     17589     17590
     17537     17539     17589     17591     17537     17539     17589     17592
     17538     17537     17539     17540     17538     17537     17539     17541
     17538     17537     17539     17589     17539     17589     17592     17593
     17539     17589     17592     17594     17539     17589     17592     17595
     17540     17539     17589     17590     17540     17539     17589     17591
     17540     17539     17589     17592     17541     17539     17589     17590
     17541     17539     17589     17591     17541     17539     17589     17592
     17542     17545     17548     17549     17542     17545     17548     17550
     17543     17542     17545     17546     17543     17542     17545     17547
     17543     17542     17545     17548     17544     17542     17545     17546
     17544     17542     17545     17547     17544     17542     17545     17548
     17545     17548     17550     17551     17545     17548     17550     17552
     17546     17545     17548     17549     17546     17545     17548     17550
     17547     17545     17548     17549     17547     17545     17548     17550
     17548     17550     17552     17553     17548     17550     17552     17554
     17548     17550     17552     17555     17549     17548     17550     17551
     17549     17548     17550     17552     17550     17552     17555     17556
     17550     17552     17555     17557     17551     17550     17552     17553
     17551     17550     17552     17554     17551     17550     17552     17555
     17552     17555     17557     17558     17552     17555     17557     17559
     17553     17552     17555     17556     17553     17552     17555     17557
     17554     17552     17555     17556     17554     17552     17555     17557
     17555     17557     17559     17560     17555     17557     17559     17561
     17555     17557     17559     17562     17556     17555     17557     17558
     17556     17555     17557     17559     17557     17559     17562     17563
     17557     17559     17562     17564     17558     17557     17559     17560
     17558     17557     17559     17561     17558     17557     17559     17562
     17559     17562     17564     17565     17559     17562     17564     17566
     17560     17559     17562     17563     17560     17559     17562     17564
     17561     17559     17562     17563     17561     17559     17562     17564
     17562     17564     17566     17567     17562     17564     17566     17568
     17562     17564     17566     17569     17563     17562     17564     17565
     17563     17562     17564     17566     17564     17566     17569     17570
     17564     17566     17569     17571     17565     17564     17566     17567
     17565     17564     17566     17568     17565     17564     17566     17569
     17566     17569     17571     17572     17566     17569     17571     17573
     17567     17566     17569     17570     17567     17566     17569     17571
     17568     17566     17569     17570     17568     17566     17569     17571
     17569     17571     17573     17574     17569     17571     17573     17575
     17569     17571     17573     17576     17570     17569     17571     17572
     17570     17569     17571     17573     17571     17573     17576     17577
     17571     17573     17576     17578     17571     17573     17576     17579
     17572     17571     17573     17574     17572     17571     17573     17575
     17572     17571     17573     17576     17573     17576     17579     17580
     17573     17576     17579     17581     17573     17576     17579     17582
     17574     17573     17576     17577     17574     17573     17576     17578
     17574     17573     17576     17579     17575     17573     17576     17577
     17575     17573     17576     17578     17575     17573     17576     17579
     17576     17579     17582     17583     17576     17579     17582     17584
     17576     17579     17582     17585     17577     17576     17579     17580
     17577     17576     17579     17581     17577     17576     17579     17582
     17578     17576     17579     17580     17578     17576     17579     17581
     17578     17576     17579     17582     17579     17582     17585     17586
     17579     17582     17585     17587     17579     17582     17585     17588
     17580     17579     17582     17583     17580     17579     17582     17584
     17580     17579     17582     17585     17581     17579     17582     17583
     17581     17579     17582     17584     17581     17579     17582     17585
     17583     17582     17585     17586     17583     17582     17585     17587
     17583     17582     17585     17588     17584     17582     17585     17586
     17584     17582     17585     17587     17584     17582     17585     17588
     17589     17592     17595     17596     17589     17592     17595     17597
     17589     17592     17595     17598     17590     17589     17592     17593
     17590     17589     17592     17594     17590     17589     17592     17595
     17591     17589     17592     17593     17591     17589     17592     17594
     17591     17589     17592     17595     17592     17595     17598     17599
     17592     17595     17598     17600     17592     17595     17598     17601
     17593     17592     17595     17596     17593     17592     17595     17597
     17593     17592     17595     17598     17594     17592     17595     17596
     17594     17592     17595     17597     17594     17592     17595     17598
     17595     17598     17601     17602     17595     17598     17601     17603
     17595     17598     17601     17604     17596     17595     17598     17599
     17596     17595     17598     17600     17596     17595     17598     17601
     17597     17595     17598     17599     17597     17595     17598     17600
     17597     17595     17598     17601     17598     17601     17604     17605
     17598     17601     17604     17606     17598     17601     17604     17607
     17599     17598     17601     17602     17599     17598     17601     17603
     17599     17598     17601     17604     17600     17598     17601     17602
     17600     17598     17601     17603     17600     17598     17601     17604
     17601     17604     17607     17608     17601     17604     17607     17609
     17601     17604     17607     17610     17602     17601     17604     17605
     17602     17601     17604     17606     17602     17601     17604     17607
     17603     17601     17604     17605     17603     17601     17604     17606
     17603     17601     17604     17607     17604     17607     17610     17611
     17604     17607     17610     17612     17604     17607     17610     17613
     17605     17604     17607     17608     17605     17604     17607     17609
     17605     17604     17607     17610     17606     17604     17607     17608
     17606     17604     17607     17609     17606     17604     17607     17610
     17607     17610     17613     17614     17607     17610     17613     17615
     17607     17610     17613     17616     17608     17607     17610     17611
     17608     17607     17610     17612     17608     17607     17610     17613
     17609     17607     17610     17611     17609     17607     17610     17612
     17609     17607     17610     17613     17610     17613     17616     17617
     17610     17613     17616     17618     17610     17613     17616     17619
     17611     17610     17613     17614     17611     17610     17613     17615
     17611     17610     17613     17616     17612     17610     17613     17614
     17612     17610     17613     17615     17612     17610     17613     17616
     17613     17616     17619     17620     17613     17616     17619     17621
     17613     17616     17619     17622     17614     17613     17616     17617
     17614     17613     17616     17618     17614     17613     17616     17619
     17615     17613     17616     17617     17615     17613     17616     17618
     17615     17613     17616     17619     17616     17619     17622     17623
     17616     17619     17622     17624     17616     17619     17622     17625
     17617     17616     17619     17620     17617     17616     17619     17621
     17617     17616     17619     17622     17618     17616     17619     17620
     17618     17616     17619     17621     17618     17616     17619     17622
     17619     17622     17625     17626     17619     17622     17625     17627
     17619     17622     17625     17628     17620     17619     17622     17623
     17620     17619     17622     17624     17620     17619     17622     17625
     17621     17619     17622     17623     17621     17619     17622     17624
     17621     17619     17622     17625     17622     17625     17628     17629
     17622     17625     17628     17630     17622     17625     17628     17631
     17623     17622     17625     17626     17623     17622     17625     17627
     17623     17622     17625     17628     17624     17622     17625     17626
     17624     17622     17625     17627     17624     17622     17625     17628
     17625     17628     17631     17632     17625     17628     17631     17633
     17625     17628     17631     17634     17626     17625     17628     17629
     17626     17625     17628     17630     17626     17625     17628     17631
     17627     17625     17628     17629     17627     17625     17628     17630
     17627     17625     17628     17631     17628     17631     17634     17635
     17628     17631     17634     17636     17628     17631     17634     17637
     17629     17628     17631     17632     17629     17628     17631     17633
     17629     17628     17631     17634     17630     17628     17631     17632
     17630     17628     17631     17633     17630     17628     17631     17634
     17632     17631     17634     17635     17632     17631     17634     17636
     17632     17631     17634     17637     17633     17631     17634     17635
     17633     17631     17634     17636     17633     17631     17634     17637
     17638     17642     17644     17645     17638     17642     17646     17647
     17638     17642     17646     17648     17638     17642     17646     17650
     17638     17658     17654     17650     17638     17658     17654     17655
     17638     17658     17654     17656     17638     17658     17663     17660
     17639     17638     17640     17641     17639     17638     17642     17643
     17639     17638     17642     17644     17639     17638     17642     17646
     17639     17638     17658     17654     17639     17638     17658     17659
     17639     17638     17658     17663     17640     17638     17642     17643
     17640     17638     17642     17644     17640     17638     17642     17646
     17640     17638     17658     17654     17640     17638     17658     17659
     17640     17638     17658     17663     17641     17640     17638     17642
     17641     17640     17638     17658     17642     17638     17658     17654
     17642     17638     17658     17659     17642     17638     17658     17663
     17642     17646     17648     17649     17642     17646     17650     17651
     17642     17646     17650     17652     17642     17646     17650     17654
     17643     17642     17638     17658     17643     17642     17644     17645
     17643     17642     17646     17647     17643     17642     17646     17648
     17643     17642     17646     17650     17644     17642     17638     17658
     17644     17642     17646     17647     17644     17642     17646     17648
     17644     17642     17646     17650     17645     17644     17642     17646
     17646     17642     17638     17658     17646     17650     17652     17653
     17646     17650     17654     17655     17646     17650     17654     17656
     17646     17650     17654     17658     17647     17646     17648     17649
     17647     17646     17650     17651     17647     17646     17650     17652
     17647     17646     17650     17654     17648     17646     17650     17651
     17648     17646     17650     17652     17648     17646     17650     17654
     17649     17648     17646     17650     17650     17654     17656     17657
     17650     17654     17658     17659     17650     17654     17658     17663
     17651     17650     17652     17653     17651     17650     17654     17655
     17651     17650     17654     17656     17651     17650     17654     17658
     17652     17650     17654     17655     17652     17650     17654     17656
     17652     17650     17654     17658     17653     17652     17650     17654
     17654     17658     17663     17660     17655     17654     17656     17657
     17655     17654     17658     17659     17655     17654     17658     17663
     17656     17654     17658     17659     17656     17654     17658     17663
     17657     17656     17654     17658     17658     17663     17660     17661
     17658     17663     17660     17662     17658     17663     17660     17664
     17659     17658     17663     17660     17660     17664     17665     17666
     17660     17664     17665     17667     17660     17664     17665     17668
     17661     17660     17664     17665     17662     17660     17664     17665
     17663     17660     17664     17665     17664     17665     17668     17669
     17664     17665     17668     17670     17664     17665     17668     17676
     17665     17668     17670     17671     17665     17668     17676     17677
     17665     17668     17676     17678     17665     17668     17676     17679
     17666     17665     17668     17669     17666     17665     17668     17670
     17666     17665     17668     17676     17667     17665     17668     17669
     17667     17665     17668     17670     17667     17665     17668     17676
     17668     17670     17671     17672     17668     17670     17671     17673
     17668     17676     17679     17680     17669     17668     17670     17671
     17669     17668     17676     17677     17669     17668     17676     17678
     17669     17668     17676     17679     17670     17668     17676     17677
     17670     17668     17676     17678     17670     17668     17676     17679
     17670     17671     17673     17674     17670     17671     17673     17675
     17670     17671     17673     17685     17671     17670     17668     17676
     17671     17673     17685     17686     17671     17673     17685     17687
     17671     17673     17685     17688     17672     17671     17673     17674
     17672     17671     17673     17675     17672     17671     17673     17685
     17673     17685     17688     17689     17673     17685     17688     17690
     17673     17685     17688     17691     17674     17673     17685     17686
     17674     17673     17685     17687     17674     17673     17685     17688
     17675     17673     17685     17686     17675     17673     17685     17687
     17675     17673     17685     17688     17676     17679     17680     17681
     17676     17679     17680     17682     17677     17676     17679     17680
     17678     17676     17679     17680     17679     17680     17682     17683
     17679     17680     17682     17684     17679     17680     17682     17732
     17680     17682     17732     17733     17680     17682     17732     17734
     17680     17682     17732     17735     17681     17680     17682     17683
     17681     17680     17682     17684     17681     17680     17682     17732
     17682     17732     17735     17736     17682     17732     17735     17737
     17682     17732     17735     17738     17683     17682     17732     17733
     17683     17682     17732     17734     17683     17682     17732     17735
     17684     17682     17732     17733     17684     17682     17732     17734
     17684     17682     17732     17735     17685     17688     17691     17692
     17685     17688     17691     17693     17686     17685     17688     17689
     17686     17685     17688     17690     17686     17685     17688     17691
     17687     17685     17688     17689     17687     17685     17688     17690
     17687     17685     17688     17691     17688     17691     17693     17694
     17688     17691     17693     17695     17689     17688     17691     17692
     17689     17688     17691     17693     17690     17688     17691     17692
     17690     17688     17691     17693     17691     17693     17695     17696
     17691     17693     17695     17697     17691     17693     17695     17698
     17692     17691     17693     17694     17692     17691     17693     17695
     17693     17695     17698     17699     17693     17695     17698     17700
     17694     17693     17695     17696     17694     17693     17695     17697
     17694     17693     17695     17698     17695     17698     17700     17701
     17695     17698     17700     17702     17696     17695     17698     17699
     17696     17695     17698     17700     17697     17695     17698     17699
     17697     17695     17698     17700     17698     17700     17702     17703
     17698     17700     17702     17704     17698     17700     17702     17705
     17699     17698     17700     17701     17699     17698     17700     17702
     17700     17702     17705     17706     17700     17702     17705     17707
     17701     17700     17702     17703     17701     17700     17702     17704
     17701     17700     17702     17705     17702     17705     17707     17708
     17702     17705     17707     17709     17703     17702     17705     17706
     17703     17702     17705     17707     17704     17702     17705     17706
     17704     17702     17705     17707     17705     17707     17709     17710
     17705     17707     17709     17711     17705     17707     17709     17712
     17706     17705     17707     17708     17706     17705     17707     17709
     17707     17709     17712     17713     17707     17709     17712     17714
     17708     17707     17709     17710     17708     17707     17709     17711
     17708     17707     17709     17712     17709     17712     17714     17715
     17709     17712     17714     17716     17710     17709     17712     17713
     17710     17709     17712     17714     17711     17709     17712     17713
     17711     17709     17712     17714     17712     17714     17716     17717
     17712     17714     17716     17718     17712     17714     17716     17719
     17713     17712     17714     17715     17713     17712     17714     17716
     17714     17716     17719     17720     17714     17716     17719     17721
     17714     17716     17719     17722     17715     17714     17716     17717
     17715     17714     17716     17718     17715     17714     17716     17719
     17716     17719     17722     17723     17716     17719     17722     17724
     17716     17719     17722     17725     17717     17716     17719     17720
     17717     17716     17719     17721     17717     17716     17719     17722
     17718     17716     17719     17720     17718     17716     17719     17721
     17718     17716     17719     17722     17719     17722     17725     17726
     17719     17722     17725     17727     17719     17722     17725     17728
     17720     17719     17722     17723     17720     17719     17722     17724
     17720     17719     17722     17725     17721     17719     17722     17723
     17721     17719     17722     17724     17721     17719     17722     17725
     17722     17725     17728     17729     17722     17725     17728     17730
     17722     17725     17728     17731     17723     17722     17725     17726
     17723     17722     17725     17727     17723     17722     17725     17728
     17724     17722     17725     17726     17724     17722     17725     17727
     17724     17722     17725     17728     17726     17725     17728     17729
     17726     17725     17728     17730     17726     17725     17728     17731
     17727     17725     17728     17729     17727     17725     17728     17730
     17727     17725     17728     17731     17732     17735     17738     17739
     17732     17735     17738     17740     17732     17735     17738     17741
     17733     17732     17735     17736     17733     17732     17735     17737
     17733     17732     17735     17738     17734     17732     17735     17736
     17734     17732     17735     17737     17734     17732     17735     17738
     17735     17738     17741     17742     17735     17738     17741     17743
     17735     17738     17741     17744     17736     17735     17738     17739
     17736     17735     17738     17740     17736     17735     17738     17741
     17737     17735     17738     17739     17737     17735     17738     17740
     17737     17735     17738     17741     17738     17741     17744     17745
     17738     17741     17744     17746     17738     17741     17744     17747
     17739     17738     17741     17742     17739     17738     17741     17743
     17739     17738     17741     17744     17740     17738     17741     17742
     17740     17738     17741     17743     17740     17738     17741     17744
     17741     17744     17747     17748     17741     17744     17747     17749
     17741     17744     17747     17750     17742     17741     17744     17745
     17742     17741     17744     17746     17742     17741     17744     17747
     17743     17741     17744     17745     17743     17741     17744     17746
     17743     17741     17744     17747     17744     17747     17750     17751
     17744     17747     17750     17752     17744     17747     17750     17753
     17745     17744     17747     17748     17745     17744     17747     17749
     17745     17744     17747     17750     17746     17744     17747     17748
     17746     17744     17747     17749     17746     17744     17747     17750
     17747     17750     17753     17754     17747     17750     17753     17755
     17747     17750     17753     17756     17748     17747     17750     17751
     17748     17747     17750     17752     17748     17747     17750     17753
     17749     17747     17750     17751     17749     17747     17750     17752
     17749     17747     17750     17753     17750     17753     17756     17757
     17750     17753     17756     17758     17750     17753     17756     17759
     17751     17750     17753     17754     17751     17750     17753     17755
     17751     17750     17753     17756     17752     17750     17753     17754
     17752     17750     17753     17755     17752     17750     17753     17756
     17753     17756     17759     17760     17753     17756     17759     17761
     17753     17756     17759     17762     17754     17753     17756     17757
     17754     17753     17756     17758     17754     17753     17756     17759
     17755     17753     17756     17757     17755     17753     17756     17758
     17755     17753     17756     17759     17756     17759     17762     17763
     17756     17759     17762     17764     17756     17759     17762     17765
     17757     17756     17759     17760     17757     17756     17759     17761
     17757     17756     17759     17762     17758     17756     17759     17760
     17758     17756     17759     17761     17758     17756     17759     17762
     17759     17762     17765     17766     17759     17762     17765     17767
     17759     17762     17765     17768     17760     17759     17762     17763
     17760     17759     17762     17764     17760     17759     17762     17765
     17761     17759     17762     17763     17761     17759     17762     17764
     17761     17759     17762     17765     17762     17765     17768     17769
     17762     17765     17768     17770     17762     17765     17768     17771
     17763     17762     17765     17766     17763     17762     17765     17767
     17763     17762     17765     17768     17764     17762     17765     17766
     17764     17762     17765     17767     17764     17762     17765     17768
     17765     17768     17771     17772     17765     17768     17771     17773
     17765     17768     17771     17774     17766     17765     17768     17769
     17766     17765     17768     17770     17766     17765     17768     17771
     17767     17765     17768     17769     17767     17765     17768     17770
     17767     17765     17768     17771     17768     17771     17774     17775
     17768     17771     17774     17776     17768     17771     17774     17777
     17769     17768     17771     17772     17769     17768     17771     17773
     17769     17768     17771     17774     17770     17768     17771     17772
     17770     17768     17771     17773     17770     17768     17771     17774
     17771     17774     17777     17778     17771     17774     17777     17779
     17771     17774     17777     17780     17772     17771     17774     17775
     17772     17771     17774     17776     17772     17771     17774     17777
     17773     17771     17774     17775     17773     17771     17774     17776
     17773     17771     17774     17777     17775     17774     17777     17778
     17775     17774     17777     17779     17775     17774     17777     17780
     17776     17774     17777     17778     17776     17774     17777     17779
     17776     17774     17777     17780     17781     17785     17788     17789
     17781     17785     17788     17819     17781     17827     17824     17819
     17781     17827     17824     17825     17781     17827     17824     17826
     17782     17781     17783     17784     17782     17781     17785     17786
     17782     17781     17785     17787     17782     17781     17785     17788
     17782     17781     17827     17824     17782     17781     17827     17828
     17782     17781     17827     17829     17783     17781     17785     17786
     17783     17781     17785     17787     17783     17781     17785     17788
     17783     17781     17827     17824     17783     17781     17827     17828
     17783     17781     17827     17829     17784     17783     17781     17785
     17784     17783     17781     17827     17785     17781     17827     17824
     17785     17781     17827     17828     17785     17781     17827     17829
     17785     17788     17789     17790     17785     17788     17789     17791
     17785     17788     17819     17817     17785     17788     17819     17820
     17785     17788     17819     17824     17786     17785     17781     17827
     17786     17785     17788     17789     17786     17785     17788     17819
     17787     17785     17781     17827     17787     17785     17788     17789
     17787     17785     17788     17819     17788     17785     17781     17827
     17788     17789     17791     17792     17788     17789     17791     17793
     17788     17789     17791     17794     17788     17819     17817     17794
     17788     17819     17817     17814     17788     17819     17817     17818
     17788     17819     17820     17821     17788     17819     17820     17822
     17788     17819     17820     17823     17788     17819     17824     17825
     17788     17819     17824     17826     17788     17819     17824     17827
     17789     17788     17819     17817     17789     17788     17819     17820
     17789     17788     17819     17824     17789     17791     17794     17795
     17789     17791     17794     17796     17789     17791     17794     17817
     17790     17789     17788     17819     17790     17789     17791     17792
     17790     17789     17791     17793     17790     17789     17791     17794
     17791     17789     17788     17819     17791     17794     17796     17797
     17791     17794     17796     17798     17791     17794     17796     17806
     17791     17794     17817     17814     17791     17794     17817     17818
     17791     17794     17817     17819     17792     17791     17794     17795
     17792     17791     17794     17796     17792     17791     17794     17817
     17793     17791     17794     17795     17793     17791     17794     17796
     17793     17791     17794     17817     17794     17796     17798     17799
     17794     17796     17798     17800     17794     17796     17798     17801
     17794     17796     17806     17804     17794     17796     17806     17807
     17794     17796     17806     17811     17794     17817     17814     17811
     17794     17817     17814     17815     17794     17817     17814     17816
     17794     17817     17819     17820     17794     17817     17819     17824
     17795     17794     17796     17797     17795     17794     17796     17798
     17795     17794     17796     17806     17795     17794     17817     17814
     17795     17794     17817     17818     17795     17794     17817     17819
     17796     17794     17817     17814     17796     17794     17817     17818
     17796     17794     17817     17819     17796     17798     17801     17802
     17796     17798     17801     17803     17796     17798     17801     17804
     17796     17806     17804     17801     17796     17806     17804     17805
     17796     17806     17804     17830     17796     17806     17807     17808
     17796     17806     17807     17809     17796     17806     17807     17810
     17796     17806     17811     17812     17796     17806     17811     17813
     17796     17806     17811     17814     17797     17796     17794     17817
     17797     17796     17798     17799     17797     17796     17798     17800
     17797     17796     17798     17801     17797     17796     17806     17804
     17797     17796     17806     17807     17797     17796     17806     17811
     17798     17796     17794     17817     17798     17796     17806     17804
     17798     17796     17806     17807     17798     17796     17806     17811
     17798     17801     17804     17805     17798     17801     17804     17806
     17798     17801     17804     17830     17799     17798     17796     17806
     17799     17798     17801     17802     17799     17798     17801     17803
     17799     17798     17801     17804     17800     17798     17796     17806
     17800     17798     17801     17802     17800     17798     17801     17803
     17800     17798     17801     17804     17801     17798     17796     17806
     17801     17804     17806     17807     17801     17804     17806     17811
     17801     17804     17830     17831     17801     17804     17830     17832
     17801     17804     17830     17836     17802     17801     17804     17805
     17802     17801     17804     17806     17802     17801     17804     17830
     17803     17801     17804     17805     17803     17801     17804     17806
     17803     17801     17804     17830     17804     17806     17807     17808
     17804     17806     17807     17809     17804     17806     17807     17810
     17804     17806     17811     17812     17804     17806     17811     17813
     17804     17806     17811     17814     17804     17830     17832     17833
     17804     17830     17832     17834     17804     17830     17832     17835
     17804     17830     17836     17837     17804     17830     17836     17838
     17804     17830     17836     17839     17805     17804     17806     17807
     17805     17804     17806     17811     17805     17804     17830     17831
     17805     17804     17830     17832     17805     17804     17830     17836
     17806     17796     17794     17817     17806     17804     17830     17831
     17806     17804     17830     17832     17806     17804     17830     17836
     17806     17811     17814     17815     17806     17811     17814     17816
     17806     17811     17814     17817     17807     17806     17804     17830
     17807     17806     17811     17812     17807     17806     17811     17813
     17807     17806     17811     17814     17808     17807     17806     17811
     17809     17807     17806     17811     17810     17807     17806     17811
     17811     17806     17804     17830     17811     17814     17817     17818
     17811     17814     17817     17819     17812     17811     17814     17815
     17812     17811     17814     17816     17812     17811     17814     17817
     17813     17811     17814     17815     17813     17811     17814     17816
     17813     17811     17814     17817     17814     17817     17819     17820
     17814     17817     17819     17824     17815     17814     17817     17818
     17815     17814     17817     17819     17816     17814     17817     17818
     17816     17814     17817     17819     17817     17819     17820     17821
     17817     17819     17820     17822     17817     17819     17820     17823
     17817     17819     17824     17825     17817     17819     17824     17826
     17817     17819     17824     17827     17818     17817     17819     17820
     17818     17817     17819     17824     17819     17824     17827     17828
     17819     17824     17827     17829     17820     17819     17824     17825
     17820     17819     17824     17826     17820     17819     17824     17827
     17821     17820     17819     17824     17822     17820     17819     17824
     17823     17820     17819     17824     17825     17824     17827     17828
     17825     17824     17827     17829     17826     17824     17827     17828
     17826     17824     17827     17829     17830     17836     17839     17840
     17830     17836     17839     17841     17830     17836     17839     17842
     17831     17830     17832     17833     17831     17830     17832     17834
     17831     17830     17832     17835     17831     17830     17836     17837
     17831     17830     17836     17838     17831     17830     17836     17839
     17832     17830     17836     17837     17832     17830     17836     17838
     17832     17830     17836     17839     17833     17832     17830     17836
     17834     17832     17830     17836     17835     17832     17830     17836
     17836     17839     17842     17843     17836     17839     17842     17844
     17836     17839     17842     17845     17837     17836     17839     17840
     17837     17836     17839     17841     17837     17836     17839     17842
     17838     17836     17839     17840     17838     17836     17839     17841
     17838     17836     17839     17842     17839     17842     17845     17846
     17839     17842     17845     17847     17839     17842     17845     17851
     17840     17839     17842     17843     17840     17839     17842     17844
     17840     17839     17842     17845     17841     17839     17842     17843
     17841     17839     17842     17844     17841     17839     17842     17845
     17842     17845     17847     17848     17842     17845     17847     17849
     17842     17845     17847     17850     17842     17845     17851     17852
     17842     17845     17851     17853     17842     17845     17851     17854
     17843     17842     17845     17846     17843     17842     17845     17847
     17843     17842     17845     17851     17844     17842     17845     17846
     17844     17842     17845     17847     17844     17842     17845     17851
     17846     17845     17847     17848     17846     17845     17847     17849
     17846     17845     17847     17850     17846     17845     17851     17852
     17846     17845     17851     17853     17846     17845     17851     17854
     17847     17845     17851     17852     17847     17845     17851     17853
     17847     17845     17851     17854     17848     17847     17845     17851
     17849     17847     17845     17851     17850     17847     17845     17851
     17855     17859     17861     17862     17855     17859     17863     17864
     17855     17859     17863     17865     17855     17859     17863     17867
     17855     17875     17871     17867     17855     17875     17871     17872
     17855     17875     17871     17873     17855     17875     17880     17877
     17856     17855     17857     17858     17856     17855     17859     17860
     17856     17855     17859     17861     17856     17855     17859     17863
     17856     17855     17875     17871     17856     17855     17875     17876
     17856     17855     17875     17880     17857     17855     17859     17860
     17857     17855     17859     17861     17857     17855     17859     17863
     17857     17855     17875     17871     17857     17855     17875     17876
     17857     17855     17875     17880     17858     17857     17855     17859
     17858     17857     17855     17875     17859     17855     17875     17871
     17859     17855     17875     17876     17859     17855     17875     17880
     17859     17863     17865     17866     17859     17863     17867     17868
     17859     17863     17867     17869     17859     17863     17867     17871
     17860     17859     17855     17875     17860     17859     17861     17862
     17860     17859     17863     17864     17860     17859     17863     17865
     17860     17859     17863     17867     17861     17859     17855     17875
     17861     17859     17863     17864     17861     17859     17863     17865
     17861     17859     17863     17867     17862     17861     17859     17863
     17863     17859     17855     17875     17863     17867     17869     17870
     17863     17867     17871     17872     17863     17867     17871     17873
     17863     17867     17871     17875     17864     17863     17865     17866
     17864     17863     17867     17868     17864     17863     17867     17869
     17864     17863     17867     17871     17865     17863     17867     17868
     17865     17863     17867     17869     17865     17863     17867     17871
     17866     17865     17863     17867     17867     17871     17873     17874
     17867     17871     17875     17876     17867     17871     17875     17880
     17868     17867     17869     17870     17868     17867     17871     17872
     17868     17867     17871     17873     17868     17867     17871     17875
     17869     17867     17871     17872     17869     17867     17871     17873
     17869     17867     17871     17875     17870     17869     17867     17871
     17871     17875     17880     17877     17872     17871     17873     17874
     17872     17871     17875     17876     17872     17871     17875     17880
     17873     17871     17875     17876     17873     17871     17875     17880
     17874     17873     17871     17875     17875     17880     17877     17878
     17875     17880     17877     17879     17875     17880     17877     17881
     17876     17875     17880     17877     17877     17881     17882     17883
     17877     17881     17882     17884     17877     17881     17882     17885
     17878     17877     17881     17882     17879     17877     17881     17882
     17880     17877     17881     17882     17881     17882     17885     17886
     17881     17882     17885     17887     17881     17882     17885     17893
     17882     17885     17887     17888     17882     17885     17893     17894
     17882     17885     17893     17895     17882     17885     17893     17896
     17883     17882     17885     17886     17883     17882     17885     17887
     17883     17882     17885     17893     17884     17882     17885     17886
     17884     17882     17885     17887     17884     17882     17885     17893
     17885     17887     17888     17889     17885     17887     17888     17890
     17885     17893     17896     17897     17886     17885     17887     17888
     17886     17885     17893     17894     17886     17885     17893     17895
     17886     17885     17893     17896     17887     17885     17893     17894
     17887     17885     17893     17895     17887     17885     17893     17896
     17887     17888     17890     17891     17887     17888     17890     17892
     17887     17888     17890     17902     17888     17887     17885     17893
     17888     17890     17902     17903     17888     17890     17902     17904
     17888     17890     17902     17905     17889     17888     17890     17891
     17889     17888     17890     17892     17889     17888     17890     17902
     17890     17902     17905     17906     17890     17902     17905     17907
     17890     17902     17905     17908     17891     17890     17902     17903
     17891     17890     17902     17904     17891     17890     17902     17905
     17892     17890     17902     17903     17892     17890     17902     17904
     17892     17890     17902     17905     17893     17896     17897     17898
     17893     17896     17897     17899     17894     17893     17896     17897
     17895     17893     17896     17897     17896     17897     17899     17900
     17896     17897     17899     17901     17896     17897     17899     17949
     17897     17899     17949     17950     17897     17899     17949     17951
     17897     17899     17949     17952     17898     17897     17899     17900
     17898     17897     17899     17901     17898     17897     17899     17949
     17899     17949     17952     17953     17899     17949     17952     17954
     17899     17949     17952     17955     17900     17899     17949     17950
     17900     17899     17949     17951     17900     17899     17949     17952
     17901     17899     17949     17950     17901     17899     17949     17951
     17901     17899     17949     17952     17902     17905     17908     17909
     17902     17905     17908     17910     17903     17902     17905     17906
     17903     17902     17905     17907     17903     17902     17905     17908
     17904     17902     17905     17906     17904     17902     17905     17907
     17904     17902     17905     17908     17905     17908     17910     17911
     17905     17908     17910     17912     17906     17905     17908     17909
     17906     17905     17908     17910     17907     17905     17908     17909
     17907     17905     17908     17910     17908     17910     17912     17913
     17908     17910     17912     17914     17908     17910     17912     17915
     17909     17908     17910     17911     17909     17908     17910     17912
     17910     17912     17915     17916     17910     17912     17915     17917
     17911     17910     17912     17913     17911     17910     17912     17914
     17911     17910     17912     17915     17912     17915     17917     17918
     17912     17915     17917     17919     17913     17912     17915     17916
     17913     17912     17915     17917     17914     17912     17915     17916
     17914     17912     17915     17917     17915     17917     17919     17920
     17915     17917     17919     17921     17915     17917     17919     17922
     17916     17915     17917     17918     17916     17915     17917     17919
     17917     17919     17922     17923     17917     17919     17922     17924
     17918     17917     17919     17920     17918     17917     17919     17921
     17918     17917     17919     17922     17919     17922     17924     17925
     17919     17922     17924     17926     17920     17919     17922     17923
     17920     17919     17922     17924     17921     17919     17922     17923
     17921     17919     17922     17924     17922     17924     17926     17927
     17922     17924     17926     17928     17922     17924     17926     17929
     17923     17922     17924     17925     17923     17922     17924     17926
     17924     17926     17929     17930     17924     17926     17929     17931
     17925     17924     17926     17927     17925     17924     17926     17928
     17925     17924     17926     17929     17926     17929     17931     17932
     17926     17929     17931     17933     17927     17926     17929     17930
     17927     17926     17929     17931     17928     17926     17929     17930
     17928     17926     17929     17931     17929     17931     17933     17934
     17929     17931     17933     17935     17929     17931     17933     17936
     17930     17929     17931     17932     17930     17929     17931     17933
     17931     17933     17936     17937     17931     17933     17936     17938
     17931     17933     17936     17939     17932     17931     17933     17934
     17932     17931     17933     17935     17932     17931     17933     17936
     17933     17936     17939     17940     17933     17936     17939     17941
     17933     17936     17939     17942     17934     17933     17936     17937
     17934     17933     17936     17938     17934     17933     17936     17939
     17935     17933     17936     17937     17935     17933     17936     17938
     17935     17933     17936     17939     17936     17939     17942     17943
     17936     17939     17942     17944     17936     17939     17942     17945
     17937     17936     17939     17940     17937     17936     17939     17941
     17937     17936     17939     17942     17938     17936     17939     17940
     17938     17936     17939     17941     17938     17936     17939     17942
     17939     17942     17945     17946     17939     17942     17945     17947
     17939     17942     17945     17948     17940     17939     17942     17943
     17940     17939     17942     17944     17940     17939     17942     17945
     17941     17939     17942     17943     17941     17939     17942     17944
     17941     17939     17942     17945     17943     17942     17945     17946
     17943     17942     17945     17947     17943     17942     17945     17948
     17944     17942     17945     17946     17944     17942     17945     17947
     17944     17942     17945     17948     17949     17952     17955     17956
     17949     17952     17955     17957     17949     17952     17955     17958
     17950     17949     17952     17953     17950     17949     17952     17954
     17950     17949     17952     17955     17951     17949     17952     17953
     17951     17949     17952     17954     17951     17949     17952     17955
     17952     17955     17958     17959     17952     17955     17958     17960
     17952     17955     17958     17961     17953     17952     17955     17956
     17953     17952     17955     17957     17953     17952     17955     17958
     17954     17952     17955     17956     17954     17952     17955     17957
     17954     17952     17955     17958     17955     17958     17961     17962
     17955     17958     17961     17963     17955     17958     17961     17964
     17956     17955     17958     17959     17956     17955     17958     17960
     17956     17955     17958     17961     17957     17955     17958     17959
     17957     17955     17958     17960     17957     17955     17958     17961
     17958     17961     17964     17965     17958     17961     17964     17966
     17958     17961     17964     17967     17959     17958     17961     17962
     17959     17958     17961     17963     17959     17958     17961     17964
     17960     17958     17961     17962     17960     17958     17961     17963
     17960     17958     17961     17964     17961     17964     17967     17968
     17961     17964     17967     17969     17961     17964     17967     17970
     17962     17961     17964     17965     17962     17961     17964     17966
     17962     17961     17964     17967     17963     17961     17964     17965
     17963     17961     17964     17966     17963     17961     17964     17967
     17964     17967     17970     17971     17964     17967     17970     17972
     17964     17967     17970     17973     17965     17964     17967     17968
     17965     17964     17967     17969     17965     17964     17967     17970
     17966     17964     17967     17968     17966     17964     17967     17969
     17966     17964     17967     17970     17967     17970     17973     17974
     17967     17970     17973     17975     17967     17970     17973     17976
     17968     17967     17970     17971     17968     17967     17970     17972
     17968     17967     17970     17973     17969     17967     17970     17971
     17969     17967     17970     17972     17969     17967     17970     17973
     17970     17973     17976     17977     17970     17973     17976     17978
     17970     17973     17976     17979     17971     17970     17973     17974
     17971     17970     17973     17975     17971     17970     17973     17976
     17972     17970     17973     17974     17972     17970     17973     17975
     17972     17970     17973     17976     17973     17976     17979     17980
     17973     17976     17979     17981     17973     17976     17979     17982
     17974     17973     17976     17977     17974     17973     17976     17978
     17974     17973     17976     17979     17975     17973     17976     17977
     17975     17973     17976     17978     17975     17973     17976     17979
     17976     17979     17982     17983     17976     17979     17982     17984
     17976     17979     17982     17985     17977     17976     17979     17980
     17977     17976     17979     17981     17977     17976     17979     17982
     17978     17976     17979     17980     17978     17976     17979     17981
     17978     17976     17979     17982     17979     17982     17985     17986
     17979     17982     17985     17987     17979     17982     17985     17988
     17980     17979     17982     17983     17980     17979     17982     17984
     17980     17979     17982     17985     17981     17979     17982     17983
     17981     17979     17982     17984     17981     17979     17982     17985
     17982     17985     17988     17989     17982     17985     17988     17990
     17982     17985     17988     17991     17983     17982     17985     17986
     17983     17982     17985     17987     17983     17982     17985     17988
     17984     17982     17985     17986     17984     17982     17985     17987
     17984     17982     17985     17988     17985     17988     17991     17992
     17985     17988     17991     17993     17985     17988     17991     17994
     17986     17985     17988     17989     17986     17985     17988     17990
     17986     17985     17988     17991     17987     17985     17988     17989
     17987     17985     17988     17990     17987     17985     17988     17991
     17988     17991     17994     17995     17988     17991     17994     17996
     17988     17991     17994     17997     17989     17988     17991     17992
     17989     17988     17991     17993     17989     17988     17991     17994
     17990     17988     17991     17992     17990     17988     17991     17993
     17990     17988     17991     17994     17992     17991     17994     17995
     17992     17991     17994     17996     17992     17991     17994     17997
     17993     17991     17994     17995     17993     17991     17994     17996
     17993     17991     17994     17997     17998     18002     18005     18006
     17998     18002     18005     18007     17998     18002     18005     18011
     17999     17998     18002     18003     17999     17998     18002     18004
     17999     17998     18002     18005     18000     17998     18002     18003
     18000     17998     18002     18004     18000     17998     18002     18005
     18001     17998     18002     18003     18001     17998     18002     18004
     18001     17998     18002     18005     18002     18005     18011     18008
     18003     18002     18005     18006     18003     18002     18005     18007
     18003     18002     18005     18011     18004     18002     18005     18006
     18004     18002     18005     18007     18004     18002     18005     18011
     18005     18011     18008     18009     18005     18011     18008     18010
     18005     18011     18008     18012     18006     18005     18011     18008
     18007     18005     18011     18008     18008     18012     18013     18014
     18008     18012     18013     18015     18008     18012     18013     18016
     18009     18008     18012     18013     18010     18008     18012     18013
     18011     18008     18012     18013     18012     18013     18016     18017
     18012     18013     18016     18018     18012     18013     18016     18024
     18013     18016     18018     18019     18013     18016     18024     18025
     18013     18016     18024     18026     18013     18016     18024     18027
     18014     18013     18016     18017     18014     18013     18016     18018
     18014     18013     18016     18024     18015     18013     18016     18017
     18015     18013     18016     18018     18015     18013     18016     18024
     18016     18018     18019     18020     18016     18018     18019     18021
     18016     18024     18027     18028     18017     18016     18018     18019
     18017     18016     18024     18025     18017     18016     18024     18026
     18017     18016     18024     18027     18018     18016     18024     18025
     18018     18016     18024     18026     18018     18016     18024     18027
     18018     18019     18021     18022     18018     18019     18021     18023
     18018     18019     18021     18033     18019     18018     18016     18024
     18019     18021     18033     18034     18019     18021     18033     18035
     18019     18021     18033     18036     18020     18019     18021     18022
     18020     18019     18021     18023     18020     18019     18021     18033
     18021     18033     18036     18037     18021     18033     18036     18038
     18021     18033     18036     18039     18022     18021     18033     18034
     18022     18021     18033     18035     18022     18021     18033     18036
     18023     18021     18033     18034     18023     18021     18033     18035
     18023     18021     18033     18036     18024     18027     18028     18029
     18024     18027     18028     18030     18025     18024     18027     18028
     18026     18024     18027     18028     18027     18028     18030     18031
     18027     18028     18030     18032     18027     18028     18030     18080
     18028     18030     18080     18081     18028     18030     18080     18082
     18028     18030     18080     18083     18029     18028     18030     18031
     18029     18028     18030     18032     18029     18028     18030     18080
     18030     18080     18083     18084     18030     18080     18083     18085
     18030     18080     18083     18086     18031     18030     18080     18081
     18031     18030     18080     18082     18031     18030     18080     18083
     18032     18030     18080     18081     18032     18030     18080     18082
     18032     18030     18080     18083     18033     18036     18039     18040
     18033     18036     18039     18041     18034     18033     18036     18037
     18034     18033     18036     18038     18034     18033     18036     18039
     18035     18033     18036     18037     18035     18033     18036     18038
     18035     18033     18036     18039     18036     18039     18041     18042
     18036     18039     18041     18043     18037     18036     18039     18040
     18037     18036     18039     18041     18038     18036     18039     18040
     18038     18036     18039     18041     18039     18041     18043     18044
     18039     18041     18043     18045     18039     18041     18043     18046
     18040     18039     18041     18042     18040     18039     18041     18043
     18041     18043     18046     18047     18041     18043     18046     18048
     18042     18041     18043     18044     18042     18041     18043     18045
     18042     18041     18043     18046     18043     18046     18048     18049
     18043     18046     18048     18050     18044     18043     18046     18047
     18044     18043     18046     18048     18045     18043     18046     18047
     18045     18043     18046     18048     18046     18048     18050     18051
     18046     18048     18050     18052     18046     18048     18050     18053
     18047     18046     18048     18049     18047     18046     18048     18050
     18048     18050     18053     18054     18048     18050     18053     18055
     18049     18048     18050     18051     18049     18048     18050     18052
     18049     18048     18050     18053     18050     18053     18055     18056
     18050     18053     18055     18057     18051     18050     18053     18054
     18051     18050     18053     18055     18052     18050     18053     18054
     18052     18050     18053     18055     18053     18055     18057     18058
     18053     18055     18057     18059     18053     18055     18057     18060
     18054     18053     18055     18056     18054     18053     18055     18057
     18055     18057     18060     18061     18055     18057     18060     18062
     18056     18055     18057     18058     18056     18055     18057     18059
     18056     18055     18057     18060     18057     18060     18062     18063
     18057     18060     18062     18064     18058     18057     18060     18061
     18058     18057     18060     18062     18059     18057     18060     18061
     18059     18057     18060     18062     18060     18062     18064     18065
     18060     18062     18064     18066     18060     18062     18064     18067
     18061     18060     18062     18063     18061     18060     18062     18064
     18062     18064     18067     18068     18062     18064     18067     18069
     18062     18064     18067     18070     18063     18062     18064     18065
     18063     18062     18064     18066     18063     18062     18064     18067
     18064     18067     18070     18071     18064     18067     18070     18072
     18064     18067     18070     18073     18065     18064     18067     18068
     18065     18064     18067     18069     18065     18064     18067     18070
     18066     18064     18067     18068     18066     18064     18067     18069
     18066     18064     18067     18070     18067     18070     18073     18074
     18067     18070     18073     18075     18067     18070     18073     18076
     18068     18067     18070     18071     18068     18067     18070     18072
     18068     18067     18070     18073     18069     18067     18070     18071
     18069     18067     18070     18072     18069     18067     18070     18073
     18070     18073     18076     18077     18070     18073     18076     18078
     18070     18073     18076     18079     18071     18070     18073     18074
     18071     18070     18073     18075     18071     18070     18073     18076
     18072     18070     18073     18074     18072     18070     18073     18075
     18072     18070     18073     18076     18074     18073     18076     18077
     18074     18073     18076     18078     18074     18073     18076     18079
     18075     18073     18076     18077     18075     18073     18076     18078
     18075     18073     18076     18079     18080     18083     18086     18087
     18080     18083     18086     18088     18080     18083     18086     18089
     18081     18080     18083     18084     18081     18080     18083     18085
     18081     18080     18083     18086     18082     18080     18083     18084
     18082     18080     18083     18085     18082     18080     18083     18086
     18083     18086     18089     18090     18083     18086     18089     18091
     18083     18086     18089     18092     18084     18083     18086     18087
     18084     18083     18086     18088     18084     18083     18086     18089
     18085     18083     18086     18087     18085     18083     18086     18088
     18085     18083     18086     18089     18086     18089     18092     18093
     18086     18089     18092     18094     18086     18089     18092     18095
     18087     18086     18089     18090     18087     18086     18089     18091
     18087     18086     18089     18092     18088     18086     18089     18090
     18088     18086     18089     18091     18088     18086     18089     18092
     18089     18092     18095     18096     18089     18092     18095     18097
     18089     18092     18095     18098     18090     18089     18092     18093
     18090     18089     18092     18094     18090     18089     18092     18095
     18091     18089     18092     18093     18091     18089     18092     18094
     18091     18089     18092     18095     18092     18095     18098     18099
     18092     18095     18098     18100     18092     18095     18098     18101
     18093     18092     18095     18096     18093     18092     18095     18097
     18093     18092     18095     18098     18094     18092     18095     18096
     18094     18092     18095     18097     18094     18092     18095     18098
     18095     18098     18101     18102     18095     18098     18101     18103
     18095     18098     18101     18104     18096     18095     18098     18099
     18096     18095     18098     18100     18096     18095     18098     18101
     18097     18095     18098     18099     18097     18095     18098     18100
     18097     18095     18098     18101     18098     18101     18104     18105
     18098     18101     18104     18106     18098     18101     18104     18107
     18099     18098     18101     18102     18099     18098     18101     18103
     18099     18098     18101     18104     18100     18098     18101     18102
     18100     18098     18101     18103     18100     18098     18101     18104
     18101     18104     18107     18108     18101     18104     18107     18109
     18101     18104     18107     18110     18102     18101     18104     18105
     18102     18101     18104     18106     18102     18101     18104     18107
     18103     18101     18104     18105     18103     18101     18104     18106
     18103     18101     18104     18107     18104     18107     18110     18111
     18104     18107     18110     18112     18104     18107     18110     18113
     18105     18104     18107     18108     18105     18104     18107     18109
     18105     18104     18107     18110     18106     18104     18107     18108
     18106     18104     18107     18109     18106     18104     18107     18110
     18107     18110     18113     18114     18107     18110     18113     18115
     18107     18110     18113     18116     18108     18107     18110     18111
     18108     18107     18110     18112     18108     18107     18110     18113
     18109     18107     18110     18111     18109     18107     18110     18112
     18109     18107     18110     18113     18110     18113     18116     18117
     18110     18113     18116     18118     18110     18113     18116     18119
     18111     18110     18113     18114     18111     18110     18113     18115
     18111     18110     18113     18116     18112     18110     18113     18114
     18112     18110     18113     18115     18112     18110     18113     18116
     18113     18116     18119     18120     18113     18116     18119     18121
     18113     18116     18119     18122     18114     18113     18116     18117
     18114     18113     18116     18118     18114     18113     18116     18119
     18115     18113     18116     18117     18115     18113     18116     18118
     18115     18113     18116     18119     18116     18119     18122     18123
     18116     18119     18122     18124     18116     18119     18122     18125
     18117     18116     18119     18120     18117     18116     18119     18121
     18117     18116     18119     18122     18118     18116     18119     18120
     18118     18116     18119     18121     18118     18116     18119     18122
     18119     18122     18125     18126     18119     18122     18125     18127
     18119     18122     18125     18128     18120     18119     18122     18123
     18120     18119     18122     18124     18120     18119     18122     18125
     18121     18119     18122     18123     18121     18119     18122     18124
     18121     18119     18122     18125     18123     18122     18125     18126
     18123     18122     18125     18127     18123     18122     18125     18128
     18124     18122     18125     18126     18124     18122     18125     18127
     18124     18122     18125     18128     18129     18142     18145     18146
     18129     18142     18145     18147     18129     18142     18145     18152
     18130     18129     18134     18135     18130     18129     18134     18136
     18130     18129     18134     18137     18130     18129     18138     18139
     18130     18129     18138     18140     18130     18129     18138     18141
     18130     18129     18142     18143     18130     18129     18142     18144
     18130     18129     18142     18145     18131     18130     18129     18134
     18131     18130     18129     18138     18131     18130     18129     18142
     18132     18130     18129     18134     18132     18130     18129     18138
     18132     18130     18129     18142     18133     18130     18129     18134
     18133     18130     18129     18138     18133     18130     18129     18142
     18134     18129     18138     18139     18134     18129     18138     18140
     18134     18129     18138     18141     18134     18129     18142     18143
     18134     18129     18142     18144     18134     18129     18142     18145
     18135     18134     18129     18138     18135     18134     18129     18142
     18136     18134     18129     18138     18136     18134     18129     18142
     18137     18134     18129     18138     18137     18134     18129     18142
     18138     18129     18142     18143     18138     18129     18142     18144
     18138     18129     18142     18145     18139     18138     18129     18142
     18140     18138     18129     18142     18141     18138     18129     18142
     18142     18145     18152     18148     18143     18142     18145     18146
     18143     18142     18145     18147     18143     18142     18145     18152
     18144     18142     18145     18146     18144     18142     18145     18147
     18144     18142     18145     18152     18145     18152     18148     18149
     18145     18152     18148     18150     18145     18152     18148     18151
     18146     18145     18152     18148     18147     18145     18152     18148
     18148     18151     18153     18154     18148     18151     18153     18155
     18148     18151     18153     18158     18149     18148     18151     18153
     18150     18148     18151     18153     18151     18153     18158     18156
     18151     18153     18158     18159     18151     18153     18158     18160
     18152     18148     18151     18153     18153     18158     18156     18157
     18153     18158     18156     18208     18153     18158     18160     18161
     18153     18158     18160     18162     18153     18158     18160     18164
     18154     18153     18158     18156     18154     18153     18158     18159
     18154     18153     18158     18160     18155     18153     18158     18156
     18155     18153     18158     18159     18155     18153     18158     18160
     18156     18158     18160     18161     18156     18158     18160     18162
     18156     18158     18160     18164     18156     18208     18210     18211
     18156     18208     18210     18212     18156     18208     18210     18213
     18157     18156     18158     18159     18157     18156     18158     18160
     18157     18156     18208     18209     18157     18156     18208     18210
     18158     18156     18208     18209     18158     18156     18208     18210
     18158     18160     18162     18163     18158     18160     18164     18165
     18158     18160     18164     18166     18159     18158     18156     18208
     18159     18158     18160     18161     18159     18158     18160     18162
     18159     18158     18160     18164     18160     18158     18156     18208
     18160     18164     18166     18167     18160     18164     18166     18168
     18161     18160     18162     18163     18161     18160     18164     18165
     18161     18160     18164     18166     18162     18160     18164     18165
     18162     18160     18164     18166     18163     18162     18160     18164
     18164     18166     18168     18169     18164     18166     18168     18170
     18164     18166     18168     18171     18165     18164     18166     18167
     18165     18164     18166     18168     18166     18168     18171     18172
     18166     18168     18171     18173     18166     18168     18171     18174
     18167     18166     18168     18169     18167     18166     18168     18170
     18167     18166     18168     18171     18168     18171     18174     18175
     18168     18171     18174     18176     18168     18171     18174     18177
     18169     18168     18171     18172     18169     18168     18171     18173
     18169     18168     18171     18174     18170     18168     18171     18172
     18170     18168     18171     18173     18170     18168     18171     18174
     18171     18174     18177     18178     18171     18174     18177     18179
     18171     18174     18177     18180     18172     18171     18174     18175
     18172     18171     18174     18176     18172     18171     18174     18177
     18173     18171     18174     18175     18173     18171     18174     18176
     18173     18171     18174     18177     18174     18177     18180     18181
     18174     18177     18180     18182     18174     18177     18180     18183
     18175     18174     18177     18178     18175     18174     18177     18179
     18175     18174     18177     18180     18176     18174     18177     18178
     18176     18174     18177     18179     18176     18174     18177     18180
     18177     18180     18183     18184     18177     18180     18183     18185
     18177     18180     18183     18186     18178     18177     18180     18181
     18178     18177     18180     18182     18178     18177     18180     18183
     18179     18177     18180     18181     18179     18177     18180     18182
     18179     18177     18180     18183     18180     18183     18186     18187
     18180     18183     18186     18188     18180     18183     18186     18189
     18181     18180     18183     18184     18181     18180     18183     18185
     18181     18180     18183     18186     18182     18180     18183     18184
     18182     18180     18183     18185     18182     18180     18183     18186
     18183     18186     18189     18190     18183     18186     18189     18191
     18183     18186     18189     18192     18184     18183     18186     18187
     18184     18183     18186     18188     18184     18183     18186     18189
     18185     18183     18186     18187     18185     18183     18186     18188
     18185     18183     18186     18189     18186     18189     18192     18193
     18186     18189     18192     18194     18186     18189     18192     18195
     18187     18186     18189     18190     18187     18186     18189     18191
     18187     18186     18189     18192     18188     18186     18189     18190
     18188     18186     18189     18191     18188     18186     18189     18192
     18189     18192     18195     18196     18189     18192     18195     18197
     18189     18192     18195     18198     18190     18189     18192     18193
     18190     18189     18192     18194     18190     18189     18192     18195
     18191     18189     18192     18193     18191     18189     18192     18194
     18191     18189     18192     18195     18192     18195     18198     18199
     18192     18195     18198     18200     18192     18195     18198     18201
     18193     18192     18195     18196     18193     18192     18195     18197
     18193     18192     18195     18198     18194     18192     18195     18196
     18194     18192     18195     18197     18194     18192     18195     18198
     18195     18198     18201     18202     18195     18198     18201     18203
     18195     18198     18201     18204     18196     18195     18198     18199
     18196     18195     18198     18200     18196     18195     18198     18201
     18197     18195     18198     18199     18197     18195     18198     18200
     18197     18195     18198     18201     18198     18201     18204     18205
     18198     18201     18204     18206     18198     18201     18204     18207
     18199     18198     18201     18202     18199     18198     18201     18203
     18199     18198     18201     18204     18200     18198     18201     18202
     18200     18198     18201     18203     18200     18198     18201     18204
     18202     18201     18204     18205     18202     18201     18204     18206
     18202     18201     18204     18207     18203     18201     18204     18205
     18203     18201     18204     18206     18203     18201     18204     18207
     18208     18210     18213     18214     18208     18210     18213     18215
     18208     18210     18213     18216     18209     18208     18210     18211
     18209     18208     18210     18212     18209     18208     18210     18213
     18210     18213     18216     18217     18210     18213     18216     18218
     18210     18213     18216     18219     18211     18210     18213     18214
     18211     18210     18213     18215     18211     18210     18213     18216
     18212     18210     18213     18214     18212     18210     18213     18215
     18212     18210     18213     18216     18213     18216     18219     18220
     18213     18216     18219     18221     18213     18216     18219     18222
     18214     18213     18216     18217     18214     18213     18216     18218
     18214     18213     18216     18219     18215     18213     18216     18217
     18215     18213     18216     18218     18215     18213     18216     18219
     18216     18219     18222     18223     18216     18219     18222     18224
     18216     18219     18222     18225     18217     18216     18219     18220
     18217     18216     18219     18221     18217     18216     18219     18222
     18218     18216     18219     18220     18218     18216     18219     18221
     18218     18216     18219     18222     18219     18222     18225     18226
     18219     18222     18225     18227     18219     18222     18225     18228
     18220     18219     18222     18223     18220     18219     18222     18224
     18220     18219     18222     18225     18221     18219     18222     18223
     18221     18219     18222     18224     18221     18219     18222     18225
     18222     18225     18228     18229     18222     18225     18228     18230
     18222     18225     18228     18231     18223     18222     18225     18226
     18223     18222     18225     18227     18223     18222     18225     18228
     18224     18222     18225     18226     18224     18222     18225     18227
     18224     18222     18225     18228     18225     18228     18231     18232
     18225     18228     18231     18233     18226     18225     18228     18229
     18226     18225     18228     18230     18226     18225     18228     18231
     18227     18225     18228     18229     18227     18225     18228     18230
     18227     18225     18228     18231     18228     18231     18233     18234
     18228     18231     18233     18235     18229     18228     18231     18232
     18229     18228     18231     18233     18230     18228     18231     18232
     18230     18228     18231     18233     18231     18233     18235     18236
     18231     18233     18235     18237     18231     18233     18235     18238
     18232     18231     18233     18234     18232     18231     18233     18235
     18233     18235     18238     18239     18233     18235     18238     18240
     18233     18235     18238     18241     18234     18233     18235     18236
     18234     18233     18235     18237     18234     18233     18235     18238
     18235     18238     18241     18242     18235     18238     18241     18243
     18235     18238     18241     18244     18236     18235     18238     18239
     18236     18235     18238     18240     18236     18235     18238     18241
     18237     18235     18238     18239     18237     18235     18238     18240
     18237     18235     18238     18241     18238     18241     18244     18245
     18238     18241     18244     18246     18238     18241     18244     18247
     18239     18238     18241     18242     18239     18238     18241     18243
     18239     18238     18241     18244     18240     18238     18241     18242
     18240     18238     18241     18243     18240     18238     18241     18244
     18241     18244     18247     18248     18241     18244     18247     18249
     18241     18244     18247     18250     18242     18241     18244     18245
     18242     18241     18244     18246     18242     18241     18244     18247
     18243     18241     18244     18245     18243     18241     18244     18246
     18243     18241     18244     18247     18244     18247     18250     18251
     18244     18247     18250     18252     18244     18247     18250     18253
     18245     18244     18247     18248     18245     18244     18247     18249
     18245     18244     18247     18250     18246     18244     18247     18248
     18246     18244     18247     18249     18246     18244     18247     18250
     18247     18250     18253     18254     18247     18250     18253     18255
     18247     18250     18253     18256     18248     18247     18250     18251
     18248     18247     18250     18252     18248     18247     18250     18253
     18249     18247     18250     18251     18249     18247     18250     18252
     18249     18247     18250     18253     18250     18253     18256     18257
     18250     18253     18256     18258     18250     18253     18256     18259
     18251     18250     18253     18254     18251     18250     18253     18255
     18251     18250     18253     18256     18252     18250     18253     18254
     18252     18250     18253     18255     18252     18250     18253     18256
     18254     18253     18256     18257     18254     18253     18256     18258
     18254     18253     18256     18259     18255     18253     18256     18257
     18255     18253     18256     18258     18255     18253     18256     18259
     18260     18273     18276     18277     18260     18273     18276     18278
     18260     18273     18276     18283     18261     18260     18265     18266
     18261     18260     18265     18267     18261     18260     18265     18268
     18261     18260     18269     18270     18261     18260     18269     18271
     18261     18260     18269     18272     18261     18260     18273     18274
     18261     18260     18273     18275     18261     18260     18273     18276
     18262     18261     18260     18265     18262     18261     18260     18269
     18262     18261     18260     18273     18263     18261     18260     18265
     18263     18261     18260     18269     18263     18261     18260     18273
     18264     18261     18260     18265     18264     18261     18260     18269
     18264     18261     18260     18273     18265     18260     18269     18270
     18265     18260     18269     18271     18265     18260     18269     18272
     18265     18260     18273     18274     18265     18260     18273     18275
     18265     18260     18273     18276     18266     18265     18260     18269
     18266     18265     18260     18273     18267     18265     18260     18269
     18267     18265     18260     18273     18268     18265     18260     18269
     18268     18265     18260     18273     18269     18260     18273     18274
     18269     18260     18273     18275     18269     18260     18273     18276
     18270     18269     18260     18273     18271     18269     18260     18273
     18272     18269     18260     18273     18273     18276     18283     18279
     18274     18273     18276     18277     18274     18273     18276     18278
     18274     18273     18276     18283     18275     18273     18276     18277
     18275     18273     18276     18278     18275     18273     18276     18283
     18276     18283     18279     18280     18276     18283     18279     18281
     18276     18283     18279     18282     18277     18276     18283     18279
     18278     18276     18283     18279     18279     18282     18284     18285
     18279     18282     18284     18286     18279     18282     18284     18289
     18280     18279     18282     18284     18281     18279     18282     18284
     18282     18284     18289     18287     18282     18284     18289     18290
     18282     18284     18289     18291     18283     18279     18282     18284
     18284     18289     18287     18288     18284     18289     18287     18339
     18284     18289     18291     18292     18284     18289     18291     18293
     18284     18289     18291     18295     18285     18284     18289     18287
     18285     18284     18289     18290     18285     18284     18289     18291
     18286     18284     18289     18287     18286     18284     18289     18290
     18286     18284     18289     18291     18287     18289     18291     18292
     18287     18289     18291     18293     18287     18289     18291     18295
     18287     18339     18341     18342     18287     18339     18341     18343
     18287     18339     18341     18344     18288     18287     18289     18290
     18288     18287     18289     18291     18288     18287     18339     18340
     18288     18287     18339     18341     18289     18287     18339     18340
     18289     18287     18339     18341     18289     18291     18293     18294
     18289     18291     18295     18296     18289     18291     18295     18297
     18290     18289     18287     18339     18290     18289     18291     18292
     18290     18289     18291     18293     18290     18289     18291     18295
     18291     18289     18287     18339     18291     18295     18297     18298
     18291     18295     18297     18299     18292     18291     18293     18294
     18292     18291     18295     18296     18292     18291     18295     18297
     18293     18291     18295     18296     18293     18291     18295     18297
     18294     18293     18291     18295     18295     18297     18299     18300
     18295     18297     18299     18301     18295     18297     18299     18302
     18296     18295     18297     18298     18296     18295     18297     18299
     18297     18299     18302     18303     18297     18299     18302     18304
     18297     18299     18302     18305     18298     18297     18299     18300
     18298     18297     18299     18301     18298     18297     18299     18302
     18299     18302     18305     18306     18299     18302     18305     18307
     18299     18302     18305     18308     18300     18299     18302     18303
     18300     18299     18302     18304     18300     18299     18302     18305
     18301     18299     18302     18303     18301     18299     18302     18304
     18301     18299     18302     18305     18302     18305     18308     18309
     18302     18305     18308     18310     18302     18305     18308     18311
     18303     18302     18305     18306     18303     18302     18305     18307
     18303     18302     18305     18308     18304     18302     18305     18306
     18304     18302     18305     18307     18304     18302     18305     18308
     18305     18308     18311     18312     18305     18308     18311     18313
     18305     18308     18311     18314     18306     18305     18308     18309
     18306     18305     18308     18310     18306     18305     18308     18311
     18307     18305     18308     18309     18307     18305     18308     18310
     18307     18305     18308     18311     18308     18311     18314     18315
     18308     18311     18314     18316     18308     18311     18314     18317
     18309     18308     18311     18312     18309     18308     18311     18313
     18309     18308     18311     18314     18310     18308     18311     18312
     18310     18308     18311     18313     18310     18308     18311     18314
     18311     18314     18317     18318     18311     18314     18317     18319
     18311     18314     18317     18320     18312     18311     18314     18315
     18312     18311     18314     18316     18312     18311     18314     18317
     18313     18311     18314     18315     18313     18311     18314     18316
     18313     18311     18314     18317     18314     18317     18320     18321
     18314     18317     18320     18322     18314     18317     18320     18323
     18315     18314     18317     18318     18315     18314     18317     18319
     18315     18314     18317     18320     18316     18314     18317     18318
     18316     18314     18317     18319     18316     18314     18317     18320
     18317     18320     18323     18324     18317     18320     18323     18325
     18317     18320     18323     18326     18318     18317     18320     18321
     18318     18317     18320     18322     18318     18317     18320     18323
     18319     18317     18320     18321     18319     18317     18320     18322
     18319     18317     18320     18323     18320     18323     18326     18327
     18320     18323     18326     18328     18320     18323     18326     18329
     18321     18320     18323     18324     18321     18320     18323     18325
     18321     18320     18323     18326     18322     18320     18323     18324
     18322     18320     18323     18325     18322     18320     18323     18326
     18323     18326     18329     18330     18323     18326     18329     18331
     18323     18326     18329     18332     18324     18323     18326     18327
     18324     18323     18326     18328     18324     18323     18326     18329
     18325     18323     18326     18327     18325     18323     18326     18328
     18325     18323     18326     18329     18326     18329     18332     18333
     18326     18329     18332     18334     18326     18329     18332     18335
     18327     18326     18329     18330     18327     18326     18329     18331
     18327     18326     18329     18332     18328     18326     18329     18330
     18328     18326     18329     18331     18328     18326     18329     18332
     18329     18332     18335     18336     18329     18332     18335     18337
     18329     18332     18335     18338     18330     18329     18332     18333
     18330     18329     18332     18334     18330     18329     18332     18335
     18331     18329     18332     18333     18331     18329     18332     18334
     18331     18329     18332     18335     18333     18332     18335     18336
     18333     18332     18335     18337     18333     18332     18335     18338
     18334     18332     18335     18336     18334     18332     18335     18337
     18334     18332     18335     18338     18339     18341     18344     18345
     18339     18341     18344     18346     18339     18341     18344     18347
     18340     18339     18341     18342     18340     18339     18341     18343
     18340     18339     18341     18344     18341     18344     18347     18348
     18341     18344     18347     18349     18341     18344     18347     18350
     18342     18341     18344     18345     18342     18341     18344     18346
     18342     18341     18344     18347     18343     18341     18344     18345
     18343     18341     18344     18346     18343     18341     18344     18347
     18344     18347     18350     18351     18344     18347     18350     18352
     18344     18347     18350     18353     18345     18344     18347     18348
     18345     18344     18347     18349     18345     18344     18347     18350
     18346     18344     18347     18348     18346     18344     18347     18349
     18346     18344     18347     18350     18347     18350     18353     18354
     18347     18350     18353     18355     18347     18350     18353     18356
     18348     18347     18350     18351     18348     18347     18350     18352
     18348     18347     18350     18353     18349     18347     18350     18351
     18349     18347     18350     18352     18349     18347     18350     18353
     18350     18353     18356     18357     18350     18353     18356     18358
     18350     18353     18356     18359     18351     18350     18353     18354
     18351     18350     18353     18355     18351     18350     18353     18356
     18352     18350     18353     18354     18352     18350     18353     18355
     18352     18350     18353     18356     18353     18356     18359     18360
     18353     18356     18359     18361     18353     18356     18359     18362
     18354     18353     18356     18357     18354     18353     18356     18358
     18354     18353     18356     18359     18355     18353     18356     18357
     18355     18353     18356     18358     18355     18353     18356     18359
     18356     18359     18362     18363     18356     18359     18362     18364
     18357     18356     18359     18360     18357     18356     18359     18361
     18357     18356     18359     18362     18358     18356     18359     18360
     18358     18356     18359     18361     18358     18356     18359     18362
     18359     18362     18364     18365     18359     18362     18364     18366
     18360     18359     18362     18363     18360     18359     18362     18364
     18361     18359     18362     18363     18361     18359     18362     18364
     18362     18364     18366     18367     18362     18364     18366     18368
     18362     18364     18366     18369     18363     18362     18364     18365
     18363     18362     18364     18366     18364     18366     18369     18370
     18364     18366     18369     18371     18364     18366     18369     18372
     18365     18364     18366     18367     18365     18364     18366     18368
     18365     18364     18366     18369     18366     18369     18372     18373
     18366     18369     18372     18374     18366     18369     18372     18375
     18367     18366     18369     18370     18367     18366     18369     18371
     18367     18366     18369     18372     18368     18366     18369     18370
     18368     18366     18369     18371     18368     18366     18369     18372
     18369     18372     18375     18376     18369     18372     18375     18377
     18369     18372     18375     18378     18370     18369     18372     18373
     18370     18369     18372     18374     18370     18369     18372     18375
     18371     18369     18372     18373     18371     18369     18372     18374
     18371     18369     18372     18375     18372     18375     18378     18379
     18372     18375     18378     18380     18372     18375     18378     18381
     18373     18372     18375     18376     18373     18372     18375     18377
     18373     18372     18375     18378     18374     18372     18375     18376
     18374     18372     18375     18377     18374     18372     18375     18378
     18375     18378     18381     18382     18375     18378     18381     18383
     18375     18378     18381     18384     18376     18375     18378     18379
     18376     18375     18378     18380     18376     18375     18378     18381
     18377     18375     18378     18379     18377     18375     18378     18380
     18377     18375     18378     18381     18378     18381     18384     18385
     18378     18381     18384     18386     18378     18381     18384     18387
     18379     18378     18381     18382     18379     18378     18381     18383
     18379     18378     18381     18384     18380     18378     18381     18382
     18380     18378     18381     18383     18380     18378     18381     18384
     18381     18384     18387     18388     18381     18384     18387     18389
     18381     18384     18387     18390     18382     18381     18384     18385
     18382     18381     18384     18386     18382     18381     18384     18387
     18383     18381     18384     18385     18383     18381     18384     18386
     18383     18381     18384     18387     18385     18384     18387     18388
     18385     18384     18387     18389     18385     18384     18387     18390
     18386     18384     18387     18388     18386     18384     18387     18389
     18386     18384     18387     18390     18391     18395     18398     18399
     18391     18395     18398     18400     18391     18395     18398     18404
     18392     18391     18395     18396     18392     18391     18395     18397
     18392     18391     18395     18398     18393     18391     18395     18396
     18393     18391     18395     18397     18393     18391     18395     18398
     18394     18391     18395     18396     18394     18391     18395     18397
     18394     18391     18395     18398     18395     18398     18404     18401
     18396     18395     18398     18399     18396     18395     18398     18400
     18396     18395     18398     18404     18397     18395     18398     18399
     18397     18395     18398     18400     18397     18395     18398     18404
     18398     18404     18401     18402     18398     18404     18401     18403
     18398     18404     18401     18405     18399     18398     18404     18401
     18400     18398     18404     18401     18401     18405     18406     18407
     18401     18405     18406     18408     18401     18405     18406     18409
     18402     18401     18405     18406     18403     18401     18405     18406
     18404     18401     18405     18406     18405     18406     18409     18410
     18405     18406     18409     18411     18405     18406     18409     18417
     18406     18409     18411     18412     18406     18409     18417     18418
     18406     18409     18417     18419     18406     18409     18417     18420
     18407     18406     18409     18410     18407     18406     18409     18411
     18407     18406     18409     18417     18408     18406     18409     18410
     18408     18406     18409     18411     18408     18406     18409     18417
     18409     18411     18412     18413     18409     18411     18412     18414
     18409     18417     18420     18421     18410     18409     18411     18412
     18410     18409     18417     18418     18410     18409     18417     18419
     18410     18409     18417     18420     18411     18409     18417     18418
     18411     18409     18417     18419     18411     18409     18417     18420
     18411     18412     18414     18415     18411     18412     18414     18416
     18411     18412     18414     18426     18412     18411     18409     18417
     18412     18414     18426     18427     18412     18414     18426     18428
     18412     18414     18426     18429     18413     18412     18414     18415
     18413     18412     18414     18416     18413     18412     18414     18426
     18414     18426     18429     18430     18414     18426     18429     18431
     18414     18426     18429     18432     18415     18414     18426     18427
     18415     18414     18426     18428     18415     18414     18426     18429
     18416     18414     18426     18427     18416     18414     18426     18428
     18416     18414     18426     18429     18417     18420     18421     18422
     18417     18420     18421     18423     18418     18417     18420     18421
     18419     18417     18420     18421     18420     18421     18423     18424
     18420     18421     18423     18425     18420     18421     18423     18473
     18421     18423     18473     18474     18421     18423     18473     18475
     18421     18423     18473     18476     18422     18421     18423     18424
     18422     18421     18423     18425     18422     18421     18423     18473
     18423     18473     18476     18477     18423     18473     18476     18478
     18423     18473     18476     18479     18424     18423     18473     18474
     18424     18423     18473     18475     18424     18423     18473     18476
     18425     18423     18473     18474     18425     18423     18473     18475
     18425     18423     18473     18476     18426     18429     18432     18433
     18426     18429     18432     18434     18427     18426     18429     18430
     18427     18426     18429     18431     18427     18426     18429     18432
     18428     18426     18429     18430     18428     18426     18429     18431
     18428     18426     18429     18432     18429     18432     18434     18435
     18429     18432     18434     18436     18430     18429     18432     18433
     18430     18429     18432     18434     18431     18429     18432     18433
     18431     18429     18432     18434     18432     18434     18436     18437
     18432     18434     18436     18438     18432     18434     18436     18439
     18433     18432     18434     18435     18433     18432     18434     18436
     18434     18436     18439     18440     18434     18436     18439     18441
     18435     18434     18436     18437     18435     18434     18436     18438
     18435     18434     18436     18439     18436     18439     18441     18442
     18436     18439     18441     18443     18437     18436     18439     18440
     18437     18436     18439     18441     18438     18436     18439     18440
     18438     18436     18439     18441     18439     18441     18443     18444
     18439     18441     18443     18445     18439     18441     18443     18446
     18440     18439     18441     18442     18440     18439     18441     18443
     18441     18443     18446     18447     18441     18443     18446     18448
     18442     18441     18443     18444     18442     18441     18443     18445
     18442     18441     18443     18446     18443     18446     18448     18449
     18443     18446     18448     18450     18444     18443     18446     18447
     18444     18443     18446     18448     18445     18443     18446     18447
     18445     18443     18446     18448     18446     18448     18450     18451
     18446     18448     18450     18452     18446     18448     18450     18453
     18447     18446     18448     18449     18447     18446     18448     18450
     18448     18450     18453     18454     18448     18450     18453     18455
     18449     18448     18450     18451     18449     18448     18450     18452
     18449     18448     18450     18453     18450     18453     18455     18456
     18450     18453     18455     18457     18451     18450     18453     18454
     18451     18450     18453     18455     18452     18450     18453     18454
     18452     18450     18453     18455     18453     18455     18457     18458
     18453     18455     18457     18459     18453     18455     18457     18460
     18454     18453     18455     18456     18454     18453     18455     18457
     18455     18457     18460     18461     18455     18457     18460     18462
     18455     18457     18460     18463     18456     18455     18457     18458
     18456     18455     18457     18459     18456     18455     18457     18460
     18457     18460     18463     18464     18457     18460     18463     18465
     18457     18460     18463     18466     18458     18457     18460     18461
     18458     18457     18460     18462     18458     18457     18460     18463
     18459     18457     18460     18461     18459     18457     18460     18462
     18459     18457     18460     18463     18460     18463     18466     18467
     18460     18463     18466     18468     18460     18463     18466     18469
     18461     18460     18463     18464     18461     18460     18463     18465
     18461     18460     18463     18466     18462     18460     18463     18464
     18462     18460     18463     18465     18462     18460     18463     18466
     18463     18466     18469     18470     18463     18466     18469     18471
     18463     18466     18469     18472     18464     18463     18466     18467
     18464     18463     18466     18468     18464     18463     18466     18469
     18465     18463     18466     18467     18465     18463     18466     18468
     18465     18463     18466     18469     18467     18466     18469     18470
     18467     18466     18469     18471     18467     18466     18469     18472
     18468     18466     18469     18470     18468     18466     18469     18471
     18468     18466     18469     18472     18473     18476     18479     18480
     18473     18476     18479     18481     18473     18476     18479     18482
     18474     18473     18476     18477     18474     18473     18476     18478
     18474     18473     18476     18479     18475     18473     18476     18477
     18475     18473     18476     18478     18475     18473     18476     18479
     18476     18479     18482     18483     18476     18479     18482     18484
     18476     18479     18482     18485     18477     18476     18479     18480
     18477     18476     18479     18481     18477     18476     18479     18482
     18478     18476     18479     18480     18478     18476     18479     18481
     18478     18476     18479     18482     18479     18482     18485     18486
     18479     18482     18485     18487     18479     18482     18485     18488
     18480     18479     18482     18483     18480     18479     18482     18484
     18480     18479     18482     18485     18481     18479     18482     18483
     18481     18479     18482     18484     18481     18479     18482     18485
     18482     18485     18488     18489     18482     18485     18488     18490
     18482     18485     18488     18491     18483     18482     18485     18486
     18483     18482     18485     18487     18483     18482     18485     18488
     18484     18482     18485     18486     18484     18482     18485     18487
     18484     18482     18485     18488     18485     18488     18491     18492
     18485     18488     18491     18493     18485     18488     18491     18494
     18486     18485     18488     18489     18486     18485     18488     18490
     18486     18485     18488     18491     18487     18485     18488     18489
     18487     18485     18488     18490     18487     18485     18488     18491
     18488     18491     18494     18495     18488     18491     18494     18496
     18488     18491     18494     18497     18489     18488     18491     18492
     18489     18488     18491     18493     18489     18488     18491     18494
     18490     18488     18491     18492     18490     18488     18491     18493
     18490     18488     18491     18494     18491     18494     18497     18498
     18491     18494     18497     18499     18491     18494     18497     18500
     18492     18491     18494     18495     18492     18491     18494     18496
     18492     18491     18494     18497     18493     18491     18494     18495
     18493     18491     18494     18496     18493     18491     18494     18497
     18494     18497     18500     18501     18494     18497     18500     18502
     18494     18497     18500     18503     18495     18494     18497     18498
     18495     18494     18497     18499     18495     18494     18497     18500
     18496     18494     18497     18498     18496     18494     18497     18499
     18496     18494     18497     18500     18497     18500     18503     18504
     18497     18500     18503     18505     18497     18500     18503     18506
     18498     18497     18500     18501     18498     18497     18500     18502
     18498     18497     18500     18503     18499     18497     18500     18501
     18499     18497     18500     18502     18499     18497     18500     18503
     18500     18503     18506     18507     18500     18503     18506     18508
     18500     18503     18506     18509     18501     18500     18503     18504
     18501     18500     18503     18505     18501     18500     18503     18506
     18502     18500     18503     18504     18502     18500     18503     18505
     18502     18500     18503     18506     18503     18506     18509     18510
     18503     18506     18509     18511     18503     18506     18509     18512
     18504     18503     18506     18507     18504     18503     18506     18508
     18504     18503     18506     18509     18505     18503     18506     18507
     18505     18503     18506     18508     18505     18503     18506     18509
     18506     18509     18512     18513     18506     18509     18512     18514
     18506     18509     18512     18515     18507     18506     18509     18510
     18507     18506     18509     18511     18507     18506     18509     18512
     18508     18506     18509     18510     18508     18506     18509     18511
     18508     18506     18509     18512     18509     18512     18515     18516
     18509     18512     18515     18517     18509     18512     18515     18518
     18510     18509     18512     18513     18510     18509     18512     18514
     18510     18509     18512     18515     18511     18509     18512     18513
     18511     18509     18512     18514     18511     18509     18512     18515
     18512     18515     18518     18519     18512     18515     18518     18520
     18512     18515     18518     18521     18513     18512     18515     18516
     18513     18512     18515     18517     18513     18512     18515     18518
     18514     18512     18515     18516     18514     18512     18515     18517
     18514     18512     18515     18518     18516     18515     18518     18519
     18516     18515     18518     18520     18516     18515     18518     18521
     18517     18515     18518     18519     18517     18515     18518     18520
     18517     18515     18518     18521     18522     18535     18538     18539
     18522     18535     18538     18540     18522     18535     18538     18544
     18523     18522     18527     18528     18523     18522     18527     18529
     18523     18522     18527     18530     18523     18522     18531     18532
     18523     18522     18531     18533     18523     18522     18531     18534
     18523     18522     18535     18536     18523     18522     18535     18537
     18523     18522     18535     18538     18524     18523     18522     18527
     18524     18523     18522     18531     18524     18523     18522     18535
     18525     18523     18522     18527     18525     18523     18522     18531
     18525     18523     18522     18535     18526     18523     18522     18527
     18526     18523     18522     18531     18526     18523     18522     18535
     18527     18522     18531     18532     18527     18522     18531     18533
     18527     18522     18531     18534     18527     18522     18535     18536
     18527     18522     18535     18537     18527     18522     18535     18538
     18528     18527     18522     18531     18528     18527     18522     18535
     18529     18527     18522     18531     18529     18527     18522     18535
     18530     18527     18522     18531     18530     18527     18522     18535
     18531     18522     18535     18536     18531     18522     18535     18537
     18531     18522     18535     18538     18532     18531     18522     18535
     18533     18531     18522     18535     18534     18531     18522     18535
     18535     18538     18544     18541     18536     18535     18538     18539
     18536     18535     18538     18540     18536     18535     18538     18544
     18537     18535     18538     18539     18537     18535     18538     18540
     18537     18535     18538     18544     18538     18544     18541     18542
     18538     18544     18541     18543     18538     18544     18541     18545
     18539     18538     18544     18541     18540     18538     18544     18541
     18541     18545     18546     18547     18541     18545     18546     18548
     18541     18545     18546     18549     18542     18541     18545     18546
     18543     18541     18545     18546     18544     18541     18545     18546
     18545     18546     18549     18550     18545     18546     18549     18551
     18545     18546     18549     18557     18546     18549     18551     18552
     18546     18549     18557     18558     18546     18549     18557     18559
     18546     18549     18557     18560     18547     18546     18549     18550
     18547     18546     18549     18551     18547     18546     18549     18557
     18548     18546     18549     18550     18548     18546     18549     18551
     18548     18546     18549     18557     18549     18551     18552     18553
     18549     18551     18552     18554     18549     18557     18560     18561
     18550     18549     18551     18552     18550     18549     18557     18558
     18550     18549     18557     18559     18550     18549     18557     18560
     18551     18549     18557     18558     18551     18549     18557     18559
     18551     18549     18557     18560     18551     18552     18554     18555
     18551     18552     18554     18556     18551     18552     18554     18566
     18552     18551     18549     18557     18552     18554     18566     18567
     18552     18554     18566     18568     18552     18554     18566     18569
     18553     18552     18554     18555     18553     18552     18554     18556
     18553     18552     18554     18566     18554     18566     18569     18570
     18554     18566     18569     18571     18554     18566     18569     18572
     18555     18554     18566     18567     18555     18554     18566     18568
     18555     18554     18566     18569     18556     18554     18566     18567
     18556     18554     18566     18568     18556     18554     18566     18569
     18557     18560     18561     18562     18557     18560     18561     18563
     18558     18557     18560     18561     18559     18557     18560     18561
     18560     18561     18563     18564     18560     18561     18563     18565
     18560     18561     18563     18611     18561     18563     18611     18612
     18561     18563     18611     18613     18561     18563     18611     18614
     18562     18561     18563     18564     18562     18561     18563     18565
     18562     18561     18563     18611     18563     18611     18614     18615
     18563     18611     18614     18616     18563     18611     18614     18617
     18564     18563     18611     18612     18564     18563     18611     18613
     18564     18563     18611     18614     18565     18563     18611     18612
     18565     18563     18611     18613     18565     18563     18611     18614
     18566     18569     18572     18573     18566     18569     18572     18574
     18566     18569     18572     18575     18567     18566     18569     18570
     18567     18566     18569     18571     18567     18566     18569     18572
     18568     18566     18569     18570     18568     18566     18569     18571
     18568     18566     18569     18572     18569     18572     18575     18576
     18569     18572     18575     18577     18569     18572     18575     18578
     18570     18569     18572     18573     18570     18569     18572     18574
     18570     18569     18572     18575     18571     18569     18572     18573
     18571     18569     18572     18574     18571     18569     18572     18575
     18572     18575     18578     18579     18572     18575     18578     18580
     18572     18575     18578     18581     18573     18572     18575     18576
     18573     18572     18575     18577     18573     18572     18575     18578
     18574     18572     18575     18576     18574     18572     18575     18577
     18574     18572     18575     18578     18575     18578     18581     18582
     18575     18578     18581     18583     18575     18578     18581     18584
     18576     18575     18578     18579     18576     18575     18578     18580
     18576     18575     18578     18581     18577     18575     18578     18579
     18577     18575     18578     18580     18577     18575     18578     18581
     18578     18581     18584     18585     18578     18581     18584     18586
     18579     18578     18581     18582     18579     18578     18581     18583
     18579     18578     18581     18584     18580     18578     18581     18582
     18580     18578     18581     18583     18580     18578     18581     18584
     18581     18584     18586     18587     18581     18584     18586     18588
     18582     18581     18584     18585     18582     18581     18584     18586
     18583     18581     18584     18585     18583     18581     18584     18586
     18584     18586     18588     18589     18584     18586     18588     18590
     18584     18586     18588     18591     18585     18584     18586     18587
     18585     18584     18586     18588     18586     18588     18591     18592
     18586     18588     18591     18593     18587     18586     18588     18589
     18587     18586     18588     18590     18587     18586     18588     18591
     18588     18591     18593     18594     18588     18591     18593     18595
     18589     18588     18591     18592     18589     18588     18591     18593
     18590     18588     18591     18592     18590     18588     18591     18593
     18591     18593     18595     18596     18591     18593     18595     18597
     18591     18593     18595     18598     18592     18591     18593     18594
     18592     18591     18593     18595     18593     18595     18598     18599
     18593     18595     18598     18600     18593     18595     18598     18601
     18594     18593     18595     18596     18594     18593     18595     18597
     18594     18593     18595     18598     18595     18598     18601     18602
     18595     18598     18601     18603     18595     18598     18601     18604
     18596     18595     18598     18599     18596     18595     18598     18600
     18596     18595     18598     18601     18597     18595     18598     18599
     18597     18595     18598     18600     18597     18595     18598     18601
     18598     18601     18604     18605     18598     18601     18604     18606
     18598     18601     18604     18607     18599     18598     18601     18602
     18599     18598     18601     18603     18599     18598     18601     18604
     18600     18598     18601     18602     18600     18598     18601     18603
     18600     18598     18601     18604     18601     18604     18607     18608
     18601     18604     18607     18609     18601     18604     18607     18610
     18602     18601     18604     18605     18602     18601     18604     18606
     18602     18601     18604     18607     18603     18601     18604     18605
     18603     18601     18604     18606     18603     18601     18604     18607
     18605     18604     18607     18608     18605     18604     18607     18609
     18605     18604     18607     18610     18606     18604     18607     18608
     18606     18604     18607     18609     18606     18604     18607     18610
     18611     18614     18617     18618     18611     18614     18617     18619
     18611     18614     18617     18620     18612     18611     18614     18615
     18612     18611     18614     18616     18612     18611     18614     18617
     18613     18611     18614     18615     18613     18611     18614     18616
     18613     18611     18614     18617     18614     18617     18620     18621
     18614     18617     18620     18622     18614     18617     18620     18623
     18615     18614     18617     18618     18615     18614     18617     18619
     18615     18614     18617     18620     18616     18614     18617     18618
     18616     18614     18617     18619     18616     18614     18617     18620
     18617     18620     18623     18624     18617     18620     18623     18625
     18617     18620     18623     18626     18618     18617     18620     18621
     18618     18617     18620     18622     18618     18617     18620     18623
     18619     18617     18620     18621     18619     18617     18620     18622
     18619     18617     18620     18623     18620     18623     18626     18627
     18620     18623     18626     18628     18620     18623     18626     18629
     18621     18620     18623     18624     18621     18620     18623     18625
     18621     18620     18623     18626     18622     18620     18623     18624
     18622     18620     18623     18625     18622     18620     18623     18626
     18623     18626     18629     18630     18623     18626     18629     18631
     18623     18626     18629     18632     18624     18623     18626     18627
     18624     18623     18626     18628     18624     18623     18626     18629
     18625     18623     18626     18627     18625     18623     18626     18628
     18625     18623     18626     18629     18626     18629     18632     18633
     18626     18629     18632     18634     18626     18629     18632     18635
     18627     18626     18629     18630     18627     18626     18629     18631
     18627     18626     18629     18632     18628     18626     18629     18630
     18628     18626     18629     18631     18628     18626     18629     18632
     18629     18632     18635     18636     18629     18632     18635     18637
     18629     18632     18635     18638     18630     18629     18632     18633
     18630     18629     18632     18634     18630     18629     18632     18635
     18631     18629     18632     18633     18631     18629     18632     18634
     18631     18629     18632     18635     18632     18635     18638     18639
     18632     18635     18638     18640     18632     18635     18638     18641
     18633     18632     18635     18636     18633     18632     18635     18637
     18633     18632     18635     18638     18634     18632     18635     18636
     18634     18632     18635     18637     18634     18632     18635     18638
     18635     18638     18641     18642     18635     18638     18641     18643
     18635     18638     18641     18644     18636     18635     18638     18639
     18636     18635     18638     18640     18636     18635     18638     18641
     18637     18635     18638     18639     18637     18635     18638     18640
     18637     18635     18638     18641     18638     18641     18644     18645
     18638     18641     18644     18646     18638     18641     18644     18647
     18639     18638     18641     18642     18639     18638     18641     18643
     18639     18638     18641     18644     18640     18638     18641     18642
     18640     18638     18641     18643     18640     18638     18641     18644
     18641     18644     18647     18648     18641     18644     18647     18649
     18641     18644     18647     18650     18642     18641     18644     18645
     18642     18641     18644     18646     18642     18641     18644     18647
     18643     18641     18644     18645     18643     18641     18644     18646
     18643     18641     18644     18647     18644     18647     18650     18651
     18644     18647     18650     18652     18644     18647     18650     18653
     18645     18644     18647     18648     18645     18644     18647     18649
     18645     18644     18647     18650     18646     18644     18647     18648
     18646     18644     18647     18649     18646     18644     18647     18650
     18647     18650     18653     18654     18647     18650     18653     18655
     18647     18650     18653     18656     18648     18647     18650     18651
     18648     18647     18650     18652     18648     18647     18650     18653
     18649     18647     18650     18651     18649     18647     18650     18652
     18649     18647     18650     18653     18650     18653     18656     18657
     18650     18653     18656     18658     18650     18653     18656     18659
     18651     18650     18653     18654     18651     18650     18653     18655
     18651     18650     18653     18656     18652     18650     18653     18654
     18652     18650     18653     18655     18652     18650     18653     18656
     18654     18653     18656     18657     18654     18653     18656     18658
     18654     18653     18656     18659     18655     18653     18656     18657
     18655     18653     18656     18658     18655     18653     18656     18659
     18660     18673     18676     18677     18660     18673     18676     18678
     18660     18673     18676     18683     18661     18660     18665     18666
     18661     18660     18665     18667     18661     18660     18665     18668
     18661     18660     18669     18670     18661     18660     18669     18671
     18661     18660     18669     18672     18661     18660     18673     18674
     18661     18660     18673     18675     18661     18660     18673     18676
     18662     18661     18660     18665     18662     18661     18660     18669
     18662     18661     18660     18673     18663     18661     18660     18665
     18663     18661     18660     18669     18663     18661     18660     18673
     18664     18661     18660     18665     18664     18661     18660     18669
     18664     18661     18660     18673     18665     18660     18669     18670
     18665     18660     18669     18671     18665     18660     18669     18672
     18665     18660     18673     18674     18665     18660     18673     18675
     18665     18660     18673     18676     18666     18665     18660     18669
     18666     18665     18660     18673     18667     18665     18660     18669
     18667     18665     18660     18673     18668     18665     18660     18669
     18668     18665     18660     18673     18669     18660     18673     18674
     18669     18660     18673     18675     18669     18660     18673     18676
     18670     18669     18660     18673     18671     18669     18660     18673
     18672     18669     18660     18673     18673     18676     18683     18679
     18674     18673     18676     18677     18674     18673     18676     18678
     18674     18673     18676     18683     18675     18673     18676     18677
     18675     18673     18676     18678     18675     18673     18676     18683
     18676     18683     18679     18680     18676     18683     18679     18681
     18676     18683     18679     18682     18677     18676     18683     18679
     18678     18676     18683     18679     18679     18682     18684     18685
     18679     18682     18684     18686     18679     18682     18684     18689
     18680     18679     18682     18684     18681     18679     18682     18684
     18682     18684     18689     18687     18682     18684     18689     18690
     18682     18684     18689     18691     18683     18679     18682     18684
     18684     18689     18687     18688     18684     18689     18687     18739
     18684     18689     18691     18692     18684     18689     18691     18693
     18684     18689     18691     18695     18685     18684     18689     18687
     18685     18684     18689     18690     18685     18684     18689     18691
     18686     18684     18689     18687     18686     18684     18689     18690
     18686     18684     18689     18691     18687     18689     18691     18692
     18687     18689     18691     18693     18687     18689     18691     18695
     18687     18739     18741     18742     18687     18739     18741     18743
     18687     18739     18741     18744     18688     18687     18689     18690
     18688     18687     18689     18691     18688     18687     18739     18740
     18688     18687     18739     18741     18689     18687     18739     18740
     18689     18687     18739     18741     18689     18691     18693     18694
     18689     18691     18695     18696     18689     18691     18695     18697
     18690     18689     18687     18739     18690     18689     18691     18692
     18690     18689     18691     18693     18690     18689     18691     18695
     18691     18689     18687     18739     18691     18695     18697     18698
     18691     18695     18697     18699     18692     18691     18693     18694
     18692     18691     18695     18696     18692     18691     18695     18697
     18693     18691     18695     18696     18693     18691     18695     18697
     18694     18693     18691     18695     18695     18697     18699     18700
     18695     18697     18699     18701     18695     18697     18699     18702
     18696     18695     18697     18698     18696     18695     18697     18699
     18697     18699     18702     18703     18697     18699     18702     18704
     18697     18699     18702     18705     18698     18697     18699     18700
     18698     18697     18699     18701     18698     18697     18699     18702
     18699     18702     18705     18706     18699     18702     18705     18707
     18699     18702     18705     18708     18700     18699     18702     18703
     18700     18699     18702     18704     18700     18699     18702     18705
     18701     18699     18702     18703     18701     18699     18702     18704
     18701     18699     18702     18705     18702     18705     18708     18709
     18702     18705     18708     18710     18702     18705     18708     18711
     18703     18702     18705     18706     18703     18702     18705     18707
     18703     18702     18705     18708     18704     18702     18705     18706
     18704     18702     18705     18707     18704     18702     18705     18708
     18705     18708     18711     18712     18705     18708     18711     18713
     18705     18708     18711     18714     18706     18705     18708     18709
     18706     18705     18708     18710     18706     18705     18708     18711
     18707     18705     18708     18709     18707     18705     18708     18710
     18707     18705     18708     18711     18708     18711     18714     18715
     18708     18711     18714     18716     18708     18711     18714     18717
     18709     18708     18711     18712     18709     18708     18711     18713
     18709     18708     18711     18714     18710     18708     18711     18712
     18710     18708     18711     18713     18710     18708     18711     18714
     18711     18714     18717     18718     18711     18714     18717     18719
     18711     18714     18717     18720     18712     18711     18714     18715
     18712     18711     18714     18716     18712     18711     18714     18717
     18713     18711     18714     18715     18713     18711     18714     18716
     18713     18711     18714     18717     18714     18717     18720     18721
     18714     18717     18720     18722     18714     18717     18720     18723
     18715     18714     18717     18718     18715     18714     18717     18719
     18715     18714     18717     18720     18716     18714     18717     18718
     18716     18714     18717     18719     18716     18714     18717     18720
     18717     18720     18723     18724     18717     18720     18723     18725
     18717     18720     18723     18726     18718     18717     18720     18721
     18718     18717     18720     18722     18718     18717     18720     18723
     18719     18717     18720     18721     18719     18717     18720     18722
     18719     18717     18720     18723     18720     18723     18726     18727
     18720     18723     18726     18728     18720     18723     18726     18729
     18721     18720     18723     18724     18721     18720     18723     18725
     18721     18720     18723     18726     18722     18720     18723     18724
     18722     18720     18723     18725     18722     18720     18723     18726
     18723     18726     18729     18730     18723     18726     18729     18731
     18723     18726     18729     18732     18724     18723     18726     18727
     18724     18723     18726     18728     18724     18723     18726     18729
     18725     18723     18726     18727     18725     18723     18726     18728
     18725     18723     18726     18729     18726     18729     18732     18733
     18726     18729     18732     18734     18726     18729     18732     18735
     18727     18726     18729     18730     18727     18726     18729     18731
     18727     18726     18729     18732     18728     18726     18729     18730
     18728     18726     18729     18731     18728     18726     18729     18732
     18729     18732     18735     18736     18729     18732     18735     18737
     18729     18732     18735     18738     18730     18729     18732     18733
     18730     18729     18732     18734     18730     18729     18732     18735
     18731     18729     18732     18733     18731     18729     18732     18734
     18731     18729     18732     18735     18733     18732     18735     18736
     18733     18732     18735     18737     18733     18732     18735     18738
     18734     18732     18735     18736     18734     18732     18735     18737
     18734     18732     18735     18738     18739     18741     18744     18745
     18739     18741     18744     18746     18739     18741     18744     18747
     18740     18739     18741     18742     18740     18739     18741     18743
     18740     18739     18741     18744     18741     18744     18747     18748
     18741     18744     18747     18749     18741     18744     18747     18750
     18742     18741     18744     18745     18742     18741     18744     18746
     18742     18741     18744     18747     18743     18741     18744     18745
     18743     18741     18744     18746     18743     18741     18744     18747
     18744     18747     18750     18751     18744     18747     18750     18752
     18744     18747     18750     18753     18745     18744     18747     18748
     18745     18744     18747     18749     18745     18744     18747     18750
     18746     18744     18747     18748     18746     18744     18747     18749
     18746     18744     18747     18750     18747     18750     18753     18754
     18747     18750     18753     18755     18747     18750     18753     18756
     18748     18747     18750     18751     18748     18747     18750     18752
     18748     18747     18750     18753     18749     18747     18750     18751
     18749     18747     18750     18752     18749     18747     18750     18753
     18750     18753     18756     18757     18750     18753     18756     18758
     18750     18753     18756     18759     18751     18750     18753     18754
     18751     18750     18753     18755     18751     18750     18753     18756
     18752     18750     18753     18754     18752     18750     18753     18755
     18752     18750     18753     18756     18753     18756     18759     18760
     18753     18756     18759     18761     18753     18756     18759     18762
     18754     18753     18756     18757     18754     18753     18756     18758
     18754     18753     18756     18759     18755     18753     18756     18757
     18755     18753     18756     18758     18755     18753     18756     18759
     18756     18759     18762     18763     18756     18759     18762     18764
     18757     18756     18759     18760     18757     18756     18759     18761
     18757     18756     18759     18762     18758     18756     18759     18760
     18758     18756     18759     18761     18758     18756     18759     18762
     18759     18762     18764     18765     18759     18762     18764     18766
     18760     18759     18762     18763     18760     18759     18762     18764
     18761     18759     18762     18763     18761     18759     18762     18764
     18762     18764     18766     18767     18762     18764     18766     18768
     18762     18764     18766     18769     18763     18762     18764     18765
     18763     18762     18764     18766     18764     18766     18769     18770
     18764     18766     18769     18771     18764     18766     18769     18772
     18765     18764     18766     18767     18765     18764     18766     18768
     18765     18764     18766     18769     18766     18769     18772     18773
     18766     18769     18772     18774     18766     18769     18772     18775
     18767     18766     18769     18770     18767     18766     18769     18771
     18767     18766     18769     18772     18768     18766     18769     18770
     18768     18766     18769     18771     18768     18766     18769     18772
     18769     18772     18775     18776     18769     18772     18775     18777
     18769     18772     18775     18778     18770     18769     18772     18773
     18770     18769     18772     18774     18770     18769     18772     18775
     18771     18769     18772     18773     18771     18769     18772     18774
     18771     18769     18772     18775     18772     18775     18778     18779
     18772     18775     18778     18780     18772     18775     18778     18781
     18773     18772     18775     18776     18773     18772     18775     18777
     18773     18772     18775     18778     18774     18772     18775     18776
     18774     18772     18775     18777     18774     18772     18775     18778
     18775     18778     18781     18782     18775     18778     18781     18783
     18775     18778     18781     18784     18776     18775     18778     18779
     18776     18775     18778     18780     18776     18775     18778     18781
     18777     18775     18778     18779     18777     18775     18778     18780
     18777     18775     18778     18781     18778     18781     18784     18785
     18778     18781     18784     18786     18778     18781     18784     18787
     18779     18778     18781     18782     18779     18778     18781     18783
     18779     18778     18781     18784     18780     18778     18781     18782
     18780     18778     18781     18783     18780     18778     18781     18784
     18781     18784     18787     18788     18781     18784     18787     18789
     18781     18784     18787     18790     18782     18781     18784     18785
     18782     18781     18784     18786     18782     18781     18784     18787
     18783     18781     18784     18785     18783     18781     18784     18786
     18783     18781     18784     18787     18785     18784     18787     18788
     18785     18784     18787     18789     18785     18784     18787     18790
     18786     18784     18787     18788     18786     18784     18787     18789
     18786     18784     18787     18790     18791     18804     18807     18808
     18791     18804     18807     18809     18791     18804     18807     18814
     18792     18791     18796     18797     18792     18791     18796     18798
     18792     18791     18796     18799     18792     18791     18800     18801
     18792     18791     18800     18802     18792     18791     18800     18803
     18792     18791     18804     18805     18792     18791     18804     18806
     18792     18791     18804     18807     18793     18792     18791     18796
     18793     18792     18791     18800     18793     18792     18791     18804
     18794     18792     18791     18796     18794     18792     18791     18800
     18794     18792     18791     18804     18795     18792     18791     18796
     18795     18792     18791     18800     18795     18792     18791     18804
     18796     18791     18800     18801     18796     18791     18800     18802
     18796     18791     18800     18803     18796     18791     18804     18805
     18796     18791     18804     18806     18796     18791     18804     18807
     18797     18796     18791     18800     18797     18796     18791     18804
     18798     18796     18791     18800     18798     18796     18791     18804
     18799     18796     18791     18800     18799     18796     18791     18804
     18800     18791     18804     18805     18800     18791     18804     18806
     18800     18791     18804     18807     18801     18800     18791     18804
     18802     18800     18791     18804     18803     18800     18791     18804
     18804     18807     18814     18810     18805     18804     18807     18808
     18805     18804     18807     18809     18805     18804     18807     18814
     18806     18804     18807     18808     18806     18804     18807     18809
     18806     18804     18807     18814     18807     18814     18810     18811
     18807     18814     18810     18812     18807     18814     18810     18813
     18808     18807     18814     18810     18809     18807     18814     18810
     18810     18813     18815     18816     18810     18813     18815     18817
     18810     18813     18815     18820     18811     18810     18813     18815
     18812     18810     18813     18815     18813     18815     18820     18818
     18813     18815     18820     18821     18813     18815     18820     18822
     18814     18810     18813     18815     18815     18820     18818     18819
     18815     18820     18818     18870     18815     18820     18822     18823
     18815     18820     18822     18824     18815     18820     18822     18826
     18816     18815     18820     18818     18816     18815     18820     18821
     18816     18815     18820     18822     18817     18815     18820     18818
     18817     18815     18820     18821     18817     18815     18820     18822
     18818     18820     18822     18823     18818     18820     18822     18824
     18818     18820     18822     18826     18818     18870     18872     18873
     18818     18870     18872     18874     18818     18870     18872     18875
     18819     18818     18820     18821     18819     18818     18820     18822
     18819     18818     18870     18871     18819     18818     18870     18872
     18820     18818     18870     18871     18820     18818     18870     18872
     18820     18822     18824     18825     18820     18822     18826     18827
     18820     18822     18826     18828     18821     18820     18818     18870
     18821     18820     18822     18823     18821     18820     18822     18824
     18821     18820     18822     18826     18822     18820     18818     18870
     18822     18826     18828     18829     18822     18826     18828     18830
     18823     18822     18824     18825     18823     18822     18826     18827
     18823     18822     18826     18828     18824     18822     18826     18827
     18824     18822     18826     18828     18825     18824     18822     18826
     18826     18828     18830     18831     18826     18828     18830     18832
     18826     18828     18830     18833     18827     18826     18828     18829
     18827     18826     18828     18830     18828     18830     18833     18834
     18828     18830     18833     18835     18828     18830     18833     18836
     18829     18828     18830     18831     18829     18828     18830     18832
     18829     18828     18830     18833     18830     18833     18836     18837
     18830     18833     18836     18838     18830     18833     18836     18839
     18831     18830     18833     18834     18831     18830     18833     18835
     18831     18830     18833     18836     18832     18830     18833     18834
     18832     18830     18833     18835     18832     18830     18833     18836
     18833     18836     18839     18840     18833     18836     18839     18841
     18833     18836     18839     18842     18834     18833     18836     18837
     18834     18833     18836     18838     18834     18833     18836     18839
     18835     18833     18836     18837     18835     18833     18836     18838
     18835     18833     18836     18839     18836     18839     18842     18843
     18836     18839     18842     18844     18836     18839     18842     18845
     18837     18836     18839     18840     18837     18836     18839     18841
     18837     18836     18839     18842     18838     18836     18839     18840
     18838     18836     18839     18841     18838     18836     18839     18842
     18839     18842     18845     18846     18839     18842     18845     18847
     18839     18842     18845     18848     18840     18839     18842     18843
     18840     18839     18842     18844     18840     18839     18842     18845
     18841     18839     18842     18843     18841     18839     18842     18844
     18841     18839     18842     18845     18842     18845     18848     18849
     18842     18845     18848     18850     18842     18845     18848     18851
     18843     18842     18845     18846     18843     18842     18845     18847
     18843     18842     18845     18848     18844     18842     18845     18846
     18844     18842     18845     18847     18844     18842     18845     18848
     18845     18848     18851     18852     18845     18848     18851     18853
     18845     18848     18851     18854     18846     18845     18848     18849
     18846     18845     18848     18850     18846     18845     18848     18851
     18847     18845     18848     18849     18847     18845     18848     18850
     18847     18845     18848     18851     18848     18851     18854     18855
     18848     18851     18854     18856     18848     18851     18854     18857
     18849     18848     18851     18852     18849     18848     18851     18853
     18849     18848     18851     18854     18850     18848     18851     18852
     18850     18848     18851     18853     18850     18848     18851     18854
     18851     18854     18857     18858     18851     18854     18857     18859
     18851     18854     18857     18860     18852     18851     18854     18855
     18852     18851     18854     18856     18852     18851     18854     18857
     18853     18851     18854     18855     18853     18851     18854     18856
     18853     18851     18854     18857     18854     18857     18860     18861
     18854     18857     18860     18862     18854     18857     18860     18863
     18855     18854     18857     18858     18855     18854     18857     18859
     18855     18854     18857     18860     18856     18854     18857     18858
     18856     18854     18857     18859     18856     18854     18857     18860
     18857     18860     18863     18864     18857     18860     18863     18865
     18857     18860     18863     18866     18858     18857     18860     18861
     18858     18857     18860     18862     18858     18857     18860     18863
     18859     18857     18860     18861     18859     18857     18860     18862
     18859     18857     18860     18863     18860     18863     18866     18867
     18860     18863     18866     18868     18860     18863     18866     18869
     18861     18860     18863     18864     18861     18860     18863     18865
     18861     18860     18863     18866     18862     18860     18863     18864
     18862     18860     18863     18865     18862     18860     18863     18866
     18864     18863     18866     18867     18864     18863     18866     18868
     18864     18863     18866     18869     18865     18863     18866     18867
     18865     18863     18866     18868     18865     18863     18866     18869
     18870     18872     18875     18876     18870     18872     18875     18877
     18870     18872     18875     18878     18871     18870     18872     18873
     18871     18870     18872     18874     18871     18870     18872     18875
     18872     18875     18878     18879     18872     18875     18878     18880
     18872     18875     18878     18881     18873     18872     18875     18876
     18873     18872     18875     18877     18873     18872     18875     18878
     18874     18872     18875     18876     18874     18872     18875     18877
     18874     18872     18875     18878     18875     18878     18881     18882
     18875     18878     18881     18883     18875     18878     18881     18884
     18876     18875     18878     18879     18876     18875     18878     18880
     18876     18875     18878     18881     18877     18875     18878     18879
     18877     18875     18878     18880     18877     18875     18878     18881
     18878     18881     18884     18885     18878     18881     18884     18886
     18878     18881     18884     18887     18879     18878     18881     18882
     18879     18878     18881     18883     18879     18878     18881     18884
     18880     18878     18881     18882     18880     18878     18881     18883
     18880     18878     18881     18884     18881     18884     18887     18888
     18881     18884     18887     18889     18881     18884     18887     18890
     18882     18881     18884     18885     18882     18881     18884     18886
     18882     18881     18884     18887     18883     18881     18884     18885
     18883     18881     18884     18886     18883     18881     18884     18887
     18884     18887     18890     18891     18884     18887     18890     18892
     18884     18887     18890     18893     18885     18884     18887     18888
     18885     18884     18887     18889     18885     18884     18887     18890
     18886     18884     18887     18888     18886     18884     18887     18889
     18886     18884     18887     18890     18887     18890     18893     18894
     18887     18890     18893     18895     18888     18887     18890     18891
     18888     18887     18890     18892     18888     18887     18890     18893
     18889     18887     18890     18891     18889     18887     18890     18892
     18889     18887     18890     18893     18890     18893     18895     18896
     18890     18893     18895     18897     18891     18890     18893     18894
     18891     18890     18893     18895     18892     18890     18893     18894
     18892     18890     18893     18895     18893     18895     18897     18898
     18893     18895     18897     18899     18893     18895     18897     18900
     18894     18893     18895     18896     18894     18893     18895     18897
     18895     18897     18900     18901     18895     18897     18900     18902
     18895     18897     18900     18903     18896     18895     18897     18898
     18896     18895     18897     18899     18896     18895     18897     18900
     18897     18900     18903     18904     18897     18900     18903     18905
     18897     18900     18903     18906     18898     18897     18900     18901
     18898     18897     18900     18902     18898     18897     18900     18903
     18899     18897     18900     18901     18899     18897     18900     18902
     18899     18897     18900     18903     18900     18903     18906     18907
     18900     18903     18906     18908     18900     18903     18906     18909
     18901     18900     18903     18904     18901     18900     18903     18905
     18901     18900     18903     18906     18902     18900     18903     18904
     18902     18900     18903     18905     18902     18900     18903     18906
     18903     18906     18909     18910     18903     18906     18909     18911
     18903     18906     18909     18912     18904     18903     18906     18907
     18904     18903     18906     18908     18904     18903     18906     18909
     18905     18903     18906     18907     18905     18903     18906     18908
     18905     18903     18906     18909     18906     18909     18912     18913
     18906     18909     18912     18914     18906     18909     18912     18915
     18907     18906     18909     18910     18907     18906     18909     18911
     18907     18906     18909     18912     18908     18906     18909     18910
     18908     18906     18909     18911     18908     18906     18909     18912
     18909     18912     18915     18916     18909     18912     18915     18917
     18909     18912     18915     18918     18910     18909     18912     18913
     18910     18909     18912     18914     18910     18909     18912     18915
     18911     18909     18912     18913     18911     18909     18912     18914
     18911     18909     18912     18915     18912     18915     18918     18919
     18912     18915     18918     18920     18912     18915     18918     18921
     18913     18912     18915     18916     18913     18912     18915     18917
     18913     18912     18915     18918     18914     18912     18915     18916
     18914     18912     18915     18917     18914     18912     18915     18918
     18916     18915     18918     18919     18916     18915     18918     18920
     18916     18915     18918     18921     18917     18915     18918     18919
     18917     18915     18918     18920     18917     18915     18918     18921
     18922     18926     18929     18930     18922     18926     18929     18931
     18922     18926     18929     18935     18923     18922     18926     18927
     18923     18922     18926     18928     18923     18922     18926     18929
     18924     18922     18926     18927     18924     18922     18926     18928
     18924     18922     18926     18929     18925     18922     18926     18927
     18925     18922     18926     18928     18925     18922     18926     18929
     18926     18929     18935     18932     18927     18926     18929     18930
     18927     18926     18929     18931     18927     18926     18929     18935
     18928     18926     18929     18930     18928     18926     18929     18931
     18928     18926     18929     18935     18929     18935     18932     18933
     18929     18935     18932     18934     18929     18935     18932     18936
     18930     18929     18935     18932     18931     18929     18935     18932
     18932     18936     18937     18938     18932     18936     18937     18939
     18932     18936     18937     18940     18933     18932     18936     18937
     18934     18932     18936     18937     18935     18932     18936     18937
     18936     18937     18940     18941     18936     18937     18940     18942
     18936     18937     18940     18948     18937     18940     18942     18943
     18937     18940     18948     18949     18937     18940     18948     18950
     18937     18940     18948     18951     18938     18937     18940     18941
     18938     18937     18940     18942     18938     18937     18940     18948
     18939     18937     18940     18941     18939     18937     18940     18942
     18939     18937     18940     18948     18940     18942     18943     18944
     18940     18942     18943     18945     18940     18948     18951     18952
     18941     18940     18942     18943     18941     18940     18948     18949
     18941     18940     18948     18950     18941     18940     18948     18951
     18942     18940     18948     18949     18942     18940     18948     18950
     18942     18940     18948     18951     18942     18943     18945     18946
     18942     18943     18945     18947     18942     18943     18945     18957
     18943     18942     18940     18948     18943     18945     18957     18958
     18943     18945     18957     18959     18943     18945     18957     18960
     18944     18943     18945     18946     18944     18943     18945     18947
     18944     18943     18945     18957     18945     18957     18960     18961
     18945     18957     18960     18962     18945     18957     18960     18963
     18946     18945     18957     18958     18946     18945     18957     18959
     18946     18945     18957     18960     18947     18945     18957     18958
     18947     18945     18957     18959     18947     18945     18957     18960
     18948     18951     18952     18953     18948     18951     18952     18954
     18949     18948     18951     18952     18950     18948     18951     18952
     18951     18952     18954     18955     18951     18952     18954     18956
     18951     18952     18954     19004     18952     18954     19004     19005
     18952     18954     19004     19006     18952     18954     19004     19007
     18953     18952     18954     18955     18953     18952     18954     18956
     18953     18952     18954     19004     18954     19004     19007     19008
     18954     19004     19007     19009     18954     19004     19007     19010
     18955     18954     19004     19005     18955     18954     19004     19006
     18955     18954     19004     19007     18956     18954     19004     19005
     18956     18954     19004     19006     18956     18954     19004     19007
     18957     18960     18963     18964     18957     18960     18963     18965
     18958     18957     18960     18961     18958     18957     18960     18962
     18958     18957     18960     18963     18959     18957     18960     18961
     18959     18957     18960     18962     18959     18957     18960     18963
     18960     18963     18965     18966     18960     18963     18965     18967
     18961     18960     18963     18964     18961     18960     18963     18965
     18962     18960     18963     18964     18962     18960     18963     18965
     18963     18965     18967     18968     18963     18965     18967     18969
     18963     18965     18967     18970     18964     18963     18965     18966
     18964     18963     18965     18967     18965     18967     18970     18971
     18965     18967     18970     18972     18966     18965     18967     18968
     18966     18965     18967     18969     18966     18965     18967     18970
     18967     18970     18972     18973     18967     18970     18972     18974
     18968     18967     18970     18971     18968     18967     18970     18972
     18969     18967     18970     18971     18969     18967     18970     18972
     18970     18972     18974     18975     18970     18972     18974     18976
     18970     18972     18974     18977     18971     18970     18972     18973
     18971     18970     18972     18974     18972     18974     18977     18978
     18972     18974     18977     18979     18973     18972     18974     18975
     18973     18972     18974     18976     18973     18972     18974     18977
     18974     18977     18979     18980     18974     18977     18979     18981
     18975     18974     18977     18978     18975     18974     18977     18979
     18976     18974     18977     18978     18976     18974     18977     18979
     18977     18979     18981     18982     18977     18979     18981     18983
     18977     18979     18981     18984     18978     18977     18979     18980
     18978     18977     18979     18981     18979     18981     18984     18985
     18979     18981     18984     18986     18980     18979     18981     18982
     18980     18979     18981     18983     18980     18979     18981     18984
     18981     18984     18986     18987     18981     18984     18986     18988
     18982     18981     18984     18985     18982     18981     18984     18986
     18983     18981     18984     18985     18983     18981     18984     18986
     18984     18986     18988     18989     18984     18986     18988     18990
     18984     18986     18988     18991     18985     18984     18986     18987
     18985     18984     18986     18988     18986     18988     18991     18992
     18986     18988     18991     18993     18986     18988     18991     18994
     18987     18986     18988     18989     18987     18986     18988     18990
     18987     18986     18988     18991     18988     18991     18994     18995
     18988     18991     18994     18996     18988     18991     18994     18997
     18989     18988     18991     18992     18989     18988     18991     18993
     18989     18988     18991     18994     18990     18988     18991     18992
     18990     18988     18991     18993     18990     18988     18991     18994
     18991     18994     18997     18998     18991     18994     18997     18999
     18991     18994     18997     19000     18992     18991     18994     18995
     18992     18991     18994     18996     18992     18991     18994     18997
     18993     18991     18994     18995     18993     18991     18994     18996
     18993     18991     18994     18997     18994     18997     19000     19001
     18994     18997     19000     19002     18994     18997     19000     19003
     18995     18994     18997     18998     18995     18994     18997     18999
     18995     18994     18997     19000     18996     18994     18997     18998
     18996     18994     18997     18999     18996     18994     18997     19000
     18998     18997     19000     19001     18998     18997     19000     19002
     18998     18997     19000     19003     18999     18997     19000     19001
     18999     18997     19000     19002     18999     18997     19000     19003
     19004     19007     19010     19011     19004     19007     19010     19012
     19004     19007     19010     19013     19005     19004     19007     19008
     19005     19004     19007     19009     19005     19004     19007     19010
     19006     19004     19007     19008     19006     19004     19007     19009
     19006     19004     19007     19010     19007     19010     19013     19014
     19007     19010     19013     19015     19007     19010     19013     19016
     19008     19007     19010     19011     19008     19007     19010     19012
     19008     19007     19010     19013     19009     19007     19010     19011
     19009     19007     19010     19012     19009     19007     19010     19013
     19010     19013     19016     19017     19010     19013     19016     19018
     19010     19013     19016     19019     19011     19010     19013     19014
     19011     19010     19013     19015     19011     19010     19013     19016
     19012     19010     19013     19014     19012     19010     19013     19015
     19012     19010     19013     19016     19013     19016     19019     19020
     19013     19016     19019     19021     19013     19016     19019     19022
     19014     19013     19016     19017     19014     19013     19016     19018
     19014     19013     19016     19019     19015     19013     19016     19017
     19015     19013     19016     19018     19015     19013     19016     19019
     19016     19019     19022     19023     19016     19019     19022     19024
     19016     19019     19022     19025     19017     19016     19019     19020
     19017     19016     19019     19021     19017     19016     19019     19022
     19018     19016     19019     19020     19018     19016     19019     19021
     19018     19016     19019     19022     19019     19022     19025     19026
     19019     19022     19025     19027     19019     19022     19025     19028
     19020     19019     19022     19023     19020     19019     19022     19024
     19020     19019     19022     19025     19021     19019     19022     19023
     19021     19019     19022     19024     19021     19019     19022     19025
     19022     19025     19028     19029     19022     19025     19028     19030
     19022     19025     19028     19031     19023     19022     19025     19026
     19023     19022     19025     19027     19023     19022     19025     19028
     19024     19022     19025     19026     19024     19022     19025     19027
     19024     19022     19025     19028     19025     19028     19031     19032
     19025     19028     19031     19033     19025     19028     19031     19034
     19026     19025     19028     19029     19026     19025     19028     19030
     19026     19025     19028     19031     19027     19025     19028     19029
     19027     19025     19028     19030     19027     19025     19028     19031
     19028     19031     19034     19035     19028     19031     19034     19036
     19028     19031     19034     19037     19029     19028     19031     19032
     19029     19028     19031     19033     19029     19028     19031     19034
     19030     19028     19031     19032     19030     19028     19031     19033
     19030     19028     19031     19034     19031     19034     19037     19038
     19031     19034     19037     19039     19031     19034     19037     19040
     19032     19031     19034     19035     19032     19031     19034     19036
     19032     19031     19034     19037     19033     19031     19034     19035
     19033     19031     19034     19036     19033     19031     19034     19037
     19034     19037     19040     19041     19034     19037     19040     19042
     19034     19037     19040     19043     19035     19034     19037     19038
     19035     19034     19037     19039     19035     19034     19037     19040
     19036     19034     19037     19038     19036     19034     19037     19039
     19036     19034     19037     19040     19037     19040     19043     19044
     19037     19040     19043     19045     19037     19040     19043     19046
     19038     19037     19040     19041     19038     19037     19040     19042
     19038     19037     19040     19043     19039     19037     19040     19041
     19039     19037     19040     19042     19039     19037     19040     19043
     19040     19043     19046     19047     19040     19043     19046     19048
     19040     19043     19046     19049     19041     19040     19043     19044
     19041     19040     19043     19045     19041     19040     19043     19046
     19042     19040     19043     19044     19042     19040     19043     19045
     19042     19040     19043     19046     19043     19046     19049     19050
     19043     19046     19049     19051     19043     19046     19049     19052
     19044     19043     19046     19047     19044     19043     19046     19048
     19044     19043     19046     19049     19045     19043     19046     19047
     19045     19043     19046     19048     19045     19043     19046     19049
     19047     19046     19049     19050     19047     19046     19049     19051
     19047     19046     19049     19052     19048     19046     19049     19050
     19048     19046     19049     19051     19048     19046     19049     19052
     19053     19057     19060     19061     19053     19057     19060     19062
     19053     19057     19060     19066     19054     19053     19057     19058
     19054     19053     19057     19059     19054     19053     19057     19060
     19055     19053     19057     19058     19055     19053     19057     19059
     19055     19053     19057     19060     19056     19053     19057     19058
     19056     19053     19057     19059     19056     19053     19057     19060
     19057     19060     19066     19063     19058     19057     19060     19061
     19058     19057     19060     19062     19058     19057     19060     19066
     19059     19057     19060     19061     19059     19057     19060     19062
     19059     19057     19060     19066     19060     19066     19063     19064
     19060     19066     19063     19065     19060     19066     19063     19067
     19061     19060     19066     19063     19062     19060     19066     19063
     19063     19067     19068     19069     19063     19067     19068     19070
     19063     19067     19068     19071     19064     19063     19067     19068
     19065     19063     19067     19068     19066     19063     19067     19068
     19067     19068     19071     19072     19067     19068     19071     19073
     19067     19068     19071     19079     19068     19071     19073     19074
     19068     19071     19079     19080     19068     19071     19079     19081
     19068     19071     19079     19082     19069     19068     19071     19072
     19069     19068     19071     19073     19069     19068     19071     19079
     19070     19068     19071     19072     19070     19068     19071     19073
     19070     19068     19071     19079     19071     19073     19074     19075
     19071     19073     19074     19076     19071     19079     19082     19083
     19072     19071     19073     19074     19072     19071     19079     19080
     19072     19071     19079     19081     19072     19071     19079     19082
     19073     19071     19079     19080     19073     19071     19079     19081
     19073     19071     19079     19082     19073     19074     19076     19077
     19073     19074     19076     19078     19073     19074     19076     19088
     19074     19073     19071     19079     19074     19076     19088     19089
     19074     19076     19088     19090     19074     19076     19088     19091
     19075     19074     19076     19077     19075     19074     19076     19078
     19075     19074     19076     19088     19076     19088     19091     19092
     19076     19088     19091     19093     19076     19088     19091     19094
     19077     19076     19088     19089     19077     19076     19088     19090
     19077     19076     19088     19091     19078     19076     19088     19089
     19078     19076     19088     19090     19078     19076     19088     19091
     19079     19082     19083     19084     19079     19082     19083     19085
     19080     19079     19082     19083     19081     19079     19082     19083
     19082     19083     19085     19086     19082     19083     19085     19087
     19082     19083     19085     19135     19083     19085     19135     19136
     19083     19085     19135     19137     19083     19085     19135     19138
     19084     19083     19085     19086     19084     19083     19085     19087
     19084     19083     19085     19135     19085     19135     19138     19139
     19085     19135     19138     19140     19085     19135     19138     19141
     19086     19085     19135     19136     19086     19085     19135     19137
     19086     19085     19135     19138     19087     19085     19135     19136
     19087     19085     19135     19137     19087     19085     19135     19138
     19088     19091     19094     19095     19088     19091     19094     19096
     19089     19088     19091     19092     19089     19088     19091     19093
     19089     19088     19091     19094     19090     19088     19091     19092
     19090     19088     19091     19093     19090     19088     19091     19094
     19091     19094     19096     19097     19091     19094     19096     19098
     19092     19091     19094     19095     19092     19091     19094     19096
     19093     19091     19094     19095     19093     19091     19094     19096
     19094     19096     19098     19099     19094     19096     19098     19100
     19094     19096     19098     19101     19095     19094     19096     19097
     19095     19094     19096     19098     19096     19098     19101     19102
     19096     19098     19101     19103     19097     19096     19098     19099
     19097     19096     19098     19100     19097     19096     19098     19101
     19098     19101     19103     19104     19098     19101     19103     19105
     19099     19098     19101     19102     19099     19098     19101     19103
     19100     19098     19101     19102     19100     19098     19101     19103
     19101     19103     19105     19106     19101     19103     19105     19107
     19101     19103     19105     19108     19102     19101     19103     19104
     19102     19101     19103     19105     19103     19105     19108     19109
     19103     19105     19108     19110     19104     19103     19105     19106
     19104     19103     19105     19107     19104     19103     19105     19108
     19105     19108     19110     19111     19105     19108     19110     19112
     19106     19105     19108     19109     19106     19105     19108     19110
     19107     19105     19108     19109     19107     19105     19108     19110
     19108     19110     19112     19113     19108     19110     19112     19114
     19108     19110     19112     19115     19109     19108     19110     19111
     19109     19108     19110     19112     19110     19112     19115     19116
     19110     19112     19115     19117     19111     19110     19112     19113
     19111     19110     19112     19114     19111     19110     19112     19115
     19112     19115     19117     19118     19112     19115     19117     19119
     19113     19112     19115     19116     19113     19112     19115     19117
     19114     19112     19115     19116     19114     19112     19115     19117
     19115     19117     19119     19120     19115     19117     19119     19121
     19115     19117     19119     19122     19116     19115     19117     19118
     19116     19115     19117     19119     19117     19119     19122     19123
     19117     19119     19122     19124     19117     19119     19122     19125
     19118     19117     19119     19120     19118     19117     19119     19121
     19118     19117     19119     19122     19119     19122     19125     19126
     19119     19122     19125     19127     19119     19122     19125     19128
     19120     19119     19122     19123     19120     19119     19122     19124
     19120     19119     19122     19125     19121     19119     19122     19123
     19121     19119     19122     19124     19121     19119     19122     19125
     19122     19125     19128     19129     19122     19125     19128     19130
     19122     19125     19128     19131     19123     19122     19125     19126
     19123     19122     19125     19127     19123     19122     19125     19128
     19124     19122     19125     19126     19124     19122     19125     19127
     19124     19122     19125     19128     19125     19128     19131     19132
     19125     19128     19131     19133     19125     19128     19131     19134
     19126     19125     19128     19129     19126     19125     19128     19130
     19126     19125     19128     19131     19127     19125     19128     19129
     19127     19125     19128     19130     19127     19125     19128     19131
     19129     19128     19131     19132     19129     19128     19131     19133
     19129     19128     19131     19134     19130     19128     19131     19132
     19130     19128     19131     19133     19130     19128     19131     19134
     19135     19138     19141     19142     19135     19138     19141     19143
     19135     19138     19141     19144     19136     19135     19138     19139
     19136     19135     19138     19140     19136     19135     19138     19141
     19137     19135     19138     19139     19137     19135     19138     19140
     19137     19135     19138     19141     19138     19141     19144     19145
     19138     19141     19144     19146     19138     19141     19144     19147
     19139     19138     19141     19142     19139     19138     19141     19143
     19139     19138     19141     19144     19140     19138     19141     19142
     19140     19138     19141     19143     19140     19138     19141     19144
     19141     19144     19147     19148     19141     19144     19147     19149
     19141     19144     19147     19150     19142     19141     19144     19145
     19142     19141     19144     19146     19142     19141     19144     19147
     19143     19141     19144     19145     19143     19141     19144     19146
     19143     19141     19144     19147     19144     19147     19150     19151
     19144     19147     19150     19152     19144     19147     19150     19153
     19145     19144     19147     19148     19145     19144     19147     19149
     19145     19144     19147     19150     19146     19144     19147     19148
     19146     19144     19147     19149     19146     19144     19147     19150
     19147     19150     19153     19154     19147     19150     19153     19155
     19147     19150     19153     19156     19148     19147     19150     19151
     19148     19147     19150     19152     19148     19147     19150     19153
     19149     19147     19150     19151     19149     19147     19150     19152
     19149     19147     19150     19153     19150     19153     19156     19157
     19150     19153     19156     19158     19150     19153     19156     19159
     19151     19150     19153     19154     19151     19150     19153     19155
     19151     19150     19153     19156     19152     19150     19153     19154
     19152     19150     19153     19155     19152     19150     19153     19156
     19153     19156     19159     19160     19153     19156     19159     19161
     19153     19156     19159     19162     19154     19153     19156     19157
     19154     19153     19156     19158     19154     19153     19156     19159
     19155     19153     19156     19157     19155     19153     19156     19158
     19155     19153     19156     19159     19156     19159     19162     19163
     19156     19159     19162     19164     19156     19159     19162     19165
     19157     19156     19159     19160     19157     19156     19159     19161
     19157     19156     19159     19162     19158     19156     19159     19160
     19158     19156     19159     19161     19158     19156     19159     19162
     19159     19162     19165     19166     19159     19162     19165     19167
     19159     19162     19165     19168     19160     19159     19162     19163
     19160     19159     19162     19164     19160     19159     19162     19165
     19161     19159     19162     19163     19161     19159     19162     19164
     19161     19159     19162     19165     19162     19165     19168     19169
     19162     19165     19168     19170     19162     19165     19168     19171
     19163     19162     19165     19166     19163     19162     19165     19167
     19163     19162     19165     19168     19164     19162     19165     19166
     19164     19162     19165     19167     19164     19162     19165     19168
     19165     19168     19171     19172     19165     19168     19171     19173
     19165     19168     19171     19174     19166     19165     19168     19169
     19166     19165     19168     19170     19166     19165     19168     19171
     19167     19165     19168     19169     19167     19165     19168     19170
     19167     19165     19168     19171     19168     19171     19174     19175
     19168     19171     19174     19176     19168     19171     19174     19177
     19169     19168     19171     19172     19169     19168     19171     19173
     19169     19168     19171     19174     19170     19168     19171     19172
     19170     19168     19171     19173     19170     19168     19171     19174
     19171     19174     19177     19178     19171     19174     19177     19179
     19171     19174     19177     19180     19172     19171     19174     19175
     19172     19171     19174     19176     19172     19171     19174     19177
     19173     19171     19174     19175     19173     19171     19174     19176
     19173     19171     19174     19177     19174     19177     19180     19181
     19174     19177     19180     19182     19174     19177     19180     19183
     19175     19174     19177     19178     19175     19174     19177     19179
     19175     19174     19177     19180     19176     19174     19177     19178
     19176     19174     19177     19179     19176     19174     19177     19180
     19178     19177     19180     19181     19178     19177     19180     19182
     19178     19177     19180     19183     19179     19177     19180     19181
     19179     19177     19180     19182     19179     19177     19180     19183
     19184     19185     19200     19201     19184     19185     19200     19202
     19184     19185     19200     19206     19185     19184     19188     19189
     19185     19184     19188     19190     19185     19184     19188     19191
     19185     19184     19192     19193     19185     19184     19192     19194
     19185     19184     19192     19195     19185     19184     19196     19197
     19185     19184     19196     19198     19185     19184     19196     19199
     19185     19200     19206     19203     19186     19185     19184     19188
     19186     19185     19184     19192     19186     19185     19184     19196
     19186     19185     19200     19201     19186     19185     19200     19202
     19186     19185     19200     19206     19187     19185     19184     19188
     19187     19185     19184     19192     19187     19185     19184     19196
     19187     19185     19200     19201     19187     19185     19200     19202
     19187     19185     19200     19206     19188     19184     19185     19200
     19188     19184     19192     19193     19188     19184     19192     19194
     19188     19184     19192     19195     19188     19184     19196     19197
     19188     19184     19196     19198     19188     19184     19196     19199
     19189     19188     19184     19192     19189     19188     19184     19196
     19190     19188     19184     19192     19190     19188     19184     19196
     19191     19188     19184     19192     19191     19188     19184     19196
     19192     19184     19185     19200     19192     19184     19196     19197
     19192     19184     19196     19198     19192     19184     19196     19199
     19193     19192     19184     19196     19194     19192     19184     19196
     19195     19192     19184     19196     19196     19184     19185     19200
     19200     19206     19203     19204     19200     19206     19203     19205
     19200     19206     19203     19207     19201     19200     19206     19203
     19202     19200     19206     19203     19203     19207     19208     19209
     19203     19207     19208     19210     19203     19207     19208     19211
     19204     19203     19207     19208     19205     19203     19207     19208
     19206     19203     19207     19208     19207     19208     19211     19212
     19207     19208     19211     19213     19207     19208     19211     19219
     19208     19211     19213     19214     19208     19211     19219     19220
     19208     19211     19219     19221     19208     19211     19219     19222
     19209     19208     19211     19212     19209     19208     19211     19213
     19209     19208     19211     19219     19210     19208     19211     19212
     19210     19208     19211     19213     19210     19208     19211     19219
     19211     19213     19214     19215     19211     19213     19214     19216
     19211     19219     19222     19223     19212     19211     19213     19214
     19212     19211     19219     19220     19212     19211     19219     19221
     19212     19211     19219     19222     19213     19211     19219     19220
     19213     19211     19219     19221     19213     19211     19219     19222
     19213     19214     19216     19217     19213     19214     19216     19218
     19213     19214     19216     19228     19214     19213     19211     19219
     19214     19216     19228     19229     19214     19216     19228     19230
     19214     19216     19228     19231     19215     19214     19216     19217
     19215     19214     19216     19218     19215     19214     19216     19228
     19216     19228     19231     19232     19216     19228     19231     19233
     19216     19228     19231     19234     19217     19216     19228     19229
     19217     19216     19228     19230     19217     19216     19228     19231
     19218     19216     19228     19229     19218     19216     19228     19230
     19218     19216     19228     19231     19219     19222     19223     19224
     19219     19222     19223     19225     19220     19219     19222     19223
     19221     19219     19222     19223     19222     19223     19225     19226
     19222     19223     19225     19227     19222     19223     19225     19275
     19223     19225     19275     19276     19223     19225     19275     19277
     19223     19225     19275     19278     19224     19223     19225     19226
     19224     19223     19225     19227     19224     19223     19225     19275
     19225     19275     19278     19279     19225     19275     19278     19280
     19225     19275     19278     19281     19226     19225     19275     19276
     19226     19225     19275     19277     19226     19225     19275     19278
     19227     19225     19275     19276     19227     19225     19275     19277
     19227     19225     19275     19278     19228     19231     19234     19235
     19228     19231     19234     19236     19229     19228     19231     19232
     19229     19228     19231     19233     19229     19228     19231     19234
     19230     19228     19231     19232     19230     19228     19231     19233
     19230     19228     19231     19234     19231     19234     19236     19237
     19231     19234     19236     19238     19232     19231     19234     19235
     19232     19231     19234     19236     19233     19231     19234     19235
     19233     19231     19234     19236     19234     19236     19238     19239
     19234     19236     19238     19240     19234     19236     19238     19241
     19235     19234     19236     19237     19235     19234     19236     19238
     19236     19238     19241     19242     19236     19238     19241     19243
     19237     19236     19238     19239     19237     19236     19238     19240
     19237     19236     19238     19241     19238     19241     19243     19244
     19238     19241     19243     19245     19239     19238     19241     19242
     19239     19238     19241     19243     19240     19238     19241     19242
     19240     19238     19241     19243     19241     19243     19245     19246
     19241     19243     19245     19247     19241     19243     19245     19248
     19242     19241     19243     19244     19242     19241     19243     19245
     19243     19245     19248     19249     19243     19245     19248     19250
     19244     19243     19245     19246     19244     19243     19245     19247
     19244     19243     19245     19248     19245     19248     19250     19251
     19245     19248     19250     19252     19246     19245     19248     19249
     19246     19245     19248     19250     19247     19245     19248     19249
     19247     19245     19248     19250     19248     19250     19252     19253
     19248     19250     19252     19254     19248     19250     19252     19255
     19249     19248     19250     19251     19249     19248     19250     19252
     19250     19252     19255     19256     19250     19252     19255     19257
     19251     19250     19252     19253     19251     19250     19252     19254
     19251     19250     19252     19255     19252     19255     19257     19258
     19252     19255     19257     19259     19253     19252     19255     19256
     19253     19252     19255     19257     19254     19252     19255     19256
     19254     19252     19255     19257     19255     19257     19259     19260
     19255     19257     19259     19261     19255     19257     19259     19262
     19256     19255     19257     19258     19256     19255     19257     19259
     19257     19259     19262     19263     19257     19259     19262     19264
     19257     19259     19262     19265     19258     19257     19259     19260
     19258     19257     19259     19261     19258     19257     19259     19262
     19259     19262     19265     19266     19259     19262     19265     19267
     19259     19262     19265     19268     19260     19259     19262     19263
     19260     19259     19262     19264     19260     19259     19262     19265
     19261     19259     19262     19263     19261     19259     19262     19264
     19261     19259     19262     19265     19262     19265     19268     19269
     19262     19265     19268     19270     19262     19265     19268     19271
     19263     19262     19265     19266     19263     19262     19265     19267
     19263     19262     19265     19268     19264     19262     19265     19266
     19264     19262     19265     19267     19264     19262     19265     19268
     19265     19268     19271     19272     19265     19268     19271     19273
     19265     19268     19271     19274     19266     19265     19268     19269
     19266     19265     19268     19270     19266     19265     19268     19271
     19267     19265     19268     19269     19267     19265     19268     19270
     19267     19265     19268     19271     19269     19268     19271     19272
     19269     19268     19271     19273     19269     19268     19271     19274
     19270     19268     19271     19272     19270     19268     19271     19273
     19270     19268     19271     19274     19275     19278     19281     19282
     19275     19278     19281     19283     19275     19278     19281     19284
     19276     19275     19278     19279     19276     19275     19278     19280
     19276     19275     19278     19281     19277     19275     19278     19279
     19277     19275     19278     19280     19277     19275     19278     19281
     19278     19281     19284     19285     19278     19281     19284     19286
     19278     19281     19284     19287     19279     19278     19281     19282
     19279     19278     19281     19283     19279     19278     19281     19284
     19280     19278     19281     19282     19280     19278     19281     19283
     19280     19278     19281     19284     19281     19284     19287     19288
     19281     19284     19287     19289     19281     19284     19287     19290
     19282     19281     19284     19285     19282     19281     19284     19286
     19282     19281     19284     19287     19283     19281     19284     19285
     19283     19281     19284     19286     19283     19281     19284     19287
     19284     19287     19290     19291     19284     19287     19290     19292
     19284     19287     19290     19293     19285     19284     19287     19288
     19285     19284     19287     19289     19285     19284     19287     19290
     19286     19284     19287     19288     19286     19284     19287     19289
     19286     19284     19287     19290     19287     19290     19293     19294
     19287     19290     19293     19295     19287     19290     19293     19296
     19288     19287     19290     19291     19288     19287     19290     19292
     19288     19287     19290     19293     19289     19287     19290     19291
     19289     19287     19290     19292     19289     19287     19290     19293
     19290     19293     19296     19297     19290     19293     19296     19298
     19290     19293     19296     19299     19291     19290     19293     19294
     19291     19290     19293     19295     19291     19290     19293     19296
     19292     19290     19293     19294     19292     19290     19293     19295
     19292     19290     19293     19296     19293     19296     19299     19300
     19293     19296     19299     19301     19293     19296     19299     19302
     19294     19293     19296     19297     19294     19293     19296     19298
     19294     19293     19296     19299     19295     19293     19296     19297
     19295     19293     19296     19298     19295     19293     19296     19299
     19296     19299     19302     19303     19296     19299     19302     19304
     19296     19299     19302     19305     19297     19296     19299     19300
     19297     19296     19299     19301     19297     19296     19299     19302
     19298     19296     19299     19300     19298     19296     19299     19301
     19298     19296     19299     19302     19299     19302     19305     19306
     19299     19302     19305     19307     19299     19302     19305     19308
     19300     19299     19302     19303     19300     19299     19302     19304
     19300     19299     19302     19305     19301     19299     19302     19303
     19301     19299     19302     19304     19301     19299     19302     19305
     19302     19305     19308     19309     19302     19305     19308     19310
     19302     19305     19308     19311     19303     19302     19305     19306
     19303     19302     19305     19307     19303     19302     19305     19308
     19304     19302     19305     19306     19304     19302     19305     19307
     19304     19302     19305     19308     19305     19308     19311     19312
     19305     19308     19311     19313     19305     19308     19311     19314
     19306     19305     19308     19309     19306     19305     19308     19310
     19306     19305     19308     19311     19307     19305     19308     19309
     19307     19305     19308     19310     19307     19305     19308     19311
     19308     19311     19314     19315     19308     19311     19314     19316
     19308     19311     19314     19317     19309     19308     19311     19312
     19309     19308     19311     19313     19309     19308     19311     19314
     19310     19308     19311     19312     19310     19308     19311     19313
     19310     19308     19311     19314     19311     19314     19317     19318
     19311     19314     19317     19319     19311     19314     19317     19320
     19312     19311     19314     19315     19312     19311     19314     19316
     19312     19311     19314     19317     19313     19311     19314     19315
     19313     19311     19314     19316     19313     19311     19314     19317
     19314     19317     19320     19321     19314     19317     19320     19322
     19314     19317     19320     19323     19315     19314     19317     19318
     19315     19314     19317     19319     19315     19314     19317     19320
     19316     19314     19317     19318     19316     19314     19317     19319
     19316     19314     19317     19320     19318     19317     19320     19321
     19318     19317     19320     19322     19318     19317     19320     19323
     19319     19317     19320     19321     19319     19317     19320     19322
     19319     19317     19320     19323     19324     19325     19340     19341
     19324     19325     19340     19342     19324     19325     19340     19346
     19325     19324     19328     19329     19325     19324     19328     19330
     19325     19324     19328     19331     19325     19324     19332     19333
     19325     19324     19332     19334     19325     19324     19332     19335
     19325     19324     19336     19337     19325     19324     19336     19338
     19325     19324     19336     19339     19325     19340     19346     19343
     19326     19325     19324     19328     19326     19325     19324     19332
     19326     19325     19324     19336     19326     19325     19340     19341
     19326     19325     19340     19342     19326     19325     19340     19346
     19327     19325     19324     19328     19327     19325     19324     19332
     19327     19325     19324     19336     19327     19325     19340     19341
     19327     19325     19340     19342     19327     19325     19340     19346
     19328     19324     19325     19340     19328     19324     19332     19333
     19328     19324     19332     19334     19328     19324     19332     19335
     19328     19324     19336     19337     19328     19324     19336     19338
     19328     19324     19336     19339     19329     19328     19324     19332
     19329     19328     19324     19336     19330     19328     19324     19332
     19330     19328     19324     19336     19331     19328     19324     19332
     19331     19328     19324     19336     19332     19324     19325     19340
     19332     19324     19336     19337     19332     19324     19336     19338
     19332     19324     19336     19339     19333     19332     19324     19336
     19334     19332     19324     19336     19335     19332     19324     19336
     19336     19324     19325     19340     19340     19346     19343     19344
     19340     19346     19343     19345     19340     19346     19343     19347
     19341     19340     19346     19343     19342     19340     19346     19343
     19343     19347     19348     19349     19343     19347     19348     19350
     19343     19347     19348     19351     19344     19343     19347     19348
     19345     19343     19347     19348     19346     19343     19347     19348
     19347     19348     19351     19352     19347     19348     19351     19353
     19347     19348     19351     19359     19348     19351     19353     19354
     19348     19351     19359     19360     19348     19351     19359     19361
     19348     19351     19359     19362     19349     19348     19351     19352
     19349     19348     19351     19353     19349     19348     19351     19359
     19350     19348     19351     19352     19350     19348     19351     19353
     19350     19348     19351     19359     19351     19353     19354     19355
     19351     19353     19354     19356     19351     19359     19362     19363
     19352     19351     19353     19354     19352     19351     19359     19360
     19352     19351     19359     19361     19352     19351     19359     19362
     19353     19351     19359     19360     19353     19351     19359     19361
     19353     19351     19359     19362     19353     19354     19356     19357
     19353     19354     19356     19358     19353     19354     19356     19368
     19354     19353     19351     19359     19354     19356     19368     19369
     19354     19356     19368     19370     19354     19356     19368     19371
     19355     19354     19356     19357     19355     19354     19356     19358
     19355     19354     19356     19368     19356     19368     19371     19372
     19356     19368     19371     19373     19356     19368     19371     19374
     19357     19356     19368     19369     19357     19356     19368     19370
     19357     19356     19368     19371     19358     19356     19368     19369
     19358     19356     19368     19370     19358     19356     19368     19371
     19359     19362     19363     19364     19359     19362     19363     19365
     19360     19359     19362     19363     19361     19359     19362     19363
     19362     19363     19365     19366     19362     19363     19365     19367
     19362     19363     19365     19415     19363     19365     19415     19416
     19363     19365     19415     19417     19363     19365     19415     19418
     19364     19363     19365     19366     19364     19363     19365     19367
     19364     19363     19365     19415     19365     19415     19418     19419
     19365     19415     19418     19420     19365     19415     19418     19421
     19366     19365     19415     19416     19366     19365     19415     19417
     19366     19365     19415     19418     19367     19365     19415     19416
     19367     19365     19415     19417     19367     19365     19415     19418
     19368     19371     19374     19375     19368     19371     19374     19376
     19369     19368     19371     19372     19369     19368     19371     19373
     19369     19368     19371     19374     19370     19368     19371     19372
     19370     19368     19371     19373     19370     19368     19371     19374
     19371     19374     19376     19377     19371     19374     19376     19378
     19372     19371     19374     19375     19372     19371     19374     19376
     19373     19371     19374     19375     19373     19371     19374     19376
     19374     19376     19378     19379     19374     19376     19378     19380
     19374     19376     19378     19381     19375     19374     19376     19377
     19375     19374     19376     19378     19376     19378     19381     19382
     19376     19378     19381     19383     19377     19376     19378     19379
     19377     19376     19378     19380     19377     19376     19378     19381
     19378     19381     19383     19384     19378     19381     19383     19385
     19379     19378     19381     19382     19379     19378     19381     19383
     19380     19378     19381     19382     19380     19378     19381     19383
     19381     19383     19385     19386     19381     19383     19385     19387
     19381     19383     19385     19388     19382     19381     19383     19384
     19382     19381     19383     19385     19383     19385     19388     19389
     19383     19385     19388     19390     19384     19383     19385     19386
     19384     19383     19385     19387     19384     19383     19385     19388
     19385     19388     19390     19391     19385     19388     19390     19392
     19386     19385     19388     19389     19386     19385     19388     19390
     19387     19385     19388     19389     19387     19385     19388     19390
     19388     19390     19392     19393     19388     19390     19392     19394
     19388     19390     19392     19395     19389     19388     19390     19391
     19389     19388     19390     19392     19390     19392     19395     19396
     19390     19392     19395     19397     19391     19390     19392     19393
     19391     19390     19392     19394     19391     19390     19392     19395
     19392     19395     19397     19398     19392     19395     19397     19399
     19393     19392     19395     19396     19393     19392     19395     19397
     19394     19392     19395     19396     19394     19392     19395     19397
     19395     19397     19399     19400     19395     19397     19399     19401
     19395     19397     19399     19402     19396     19395     19397     19398
     19396     19395     19397     19399     19397     19399     19402     19403
     19397     19399     19402     19404     19397     19399     19402     19405
     19398     19397     19399     19400     19398     19397     19399     19401
     19398     19397     19399     19402     19399     19402     19405     19406
     19399     19402     19405     19407     19399     19402     19405     19408
     19400     19399     19402     19403     19400     19399     19402     19404
     19400     19399     19402     19405     19401     19399     19402     19403
     19401     19399     19402     19404     19401     19399     19402     19405
     19402     19405     19408     19409     19402     19405     19408     19410
     19402     19405     19408     19411     19403     19402     19405     19406
     19403     19402     19405     19407     19403     19402     19405     19408
     19404     19402     19405     19406     19404     19402     19405     19407
     19404     19402     19405     19408     19405     19408     19411     19412
     19405     19408     19411     19413     19405     19408     19411     19414
     19406     19405     19408     19409     19406     19405     19408     19410
     19406     19405     19408     19411     19407     19405     19408     19409
     19407     19405     19408     19410     19407     19405     19408     19411
     19409     19408     19411     19412     19409     19408     19411     19413
     19409     19408     19411     19414     19410     19408     19411     19412
     19410     19408     19411     19413     19410     19408     19411     19414
     19415     19418     19421     19422     19415     19418     19421     19423
     19415     19418     19421     19424     19416     19415     19418     19419
     19416     19415     19418     19420     19416     19415     19418     19421
     19417     19415     19418     19419     19417     19415     19418     19420
     19417     19415     19418     19421     19418     19421     19424     19425
     19418     19421     19424     19426     19418     19421     19424     19427
     19419     19418     19421     19422     19419     19418     19421     19423
     19419     19418     19421     19424     19420     19418     19421     19422
     19420     19418     19421     19423     19420     19418     19421     19424
     19421     19424     19427     19428     19421     19424     19427     19429
     19421     19424     19427     19430     19422     19421     19424     19425
     19422     19421     19424     19426     19422     19421     19424     19427
     19423     19421     19424     19425     19423     19421     19424     19426
     19423     19421     19424     19427     19424     19427     19430     19431
     19424     19427     19430     19432     19424     19427     19430     19433
     19425     19424     19427     19428     19425     19424     19427     19429
     19425     19424     19427     19430     19426     19424     19427     19428
     19426     19424     19427     19429     19426     19424     19427     19430
     19427     19430     19433     19434     19427     19430     19433     19435
     19427     19430     19433     19436     19428     19427     19430     19431
     19428     19427     19430     19432     19428     19427     19430     19433
     19429     19427     19430     19431     19429     19427     19430     19432
     19429     19427     19430     19433     19430     19433     19436     19437
     19430     19433     19436     19438     19430     19433     19436     19439
     19431     19430     19433     19434     19431     19430     19433     19435
     19431     19430     19433     19436     19432     19430     19433     19434
     19432     19430     19433     19435     19432     19430     19433     19436
     19433     19436     19439     19440     19433     19436     19439     19441
     19433     19436     19439     19442     19434     19433     19436     19437
     19434     19433     19436     19438     19434     19433     19436     19439
     19435     19433     19436     19437     19435     19433     19436     19438
     19435     19433     19436     19439     19436     19439     19442     19443
     19436     19439     19442     19444     19436     19439     19442     19445
     19437     19436     19439     19440     19437     19436     19439     19441
     19437     19436     19439     19442     19438     19436     19439     19440
     19438     19436     19439     19441     19438     19436     19439     19442
     19439     19442     19445     19446     19439     19442     19445     19447
     19439     19442     19445     19448     19440     19439     19442     19443
     19440     19439     19442     19444     19440     19439     19442     19445
     19441     19439     19442     19443     19441     19439     19442     19444
     19441     19439     19442     19445     19442     19445     19448     19449
     19442     19445     19448     19450     19442     19445     19448     19451
     19443     19442     19445     19446     19443     19442     19445     19447
     19443     19442     19445     19448     19444     19442     19445     19446
     19444     19442     19445     19447     19444     19442     19445     19448
     19445     19448     19451     19452     19445     19448     19451     19453
     19445     19448     19451     19454     19446     19445     19448     19449
     19446     19445     19448     19450     19446     19445     19448     19451
     19447     19445     19448     19449     19447     19445     19448     19450
     19447     19445     19448     19451     19448     19451     19454     19455
     19448     19451     19454     19456     19448     19451     19454     19457
     19449     19448     19451     19452     19449     19448     19451     19453
     19449     19448     19451     19454     19450     19448     19451     19452
     19450     19448     19451     19453     19450     19448     19451     19454
     19451     19454     19457     19458     19451     19454     19457     19459
     19451     19454     19457     19460     19452     19451     19454     19455
     19452     19451     19454     19456     19452     19451     19454     19457
     19453     19451     19454     19455     19453     19451     19454     19456
     19453     19451     19454     19457     19454     19457     19460     19461
     19454     19457     19460     19462     19454     19457     19460     19463
     19455     19454     19457     19458     19455     19454     19457     19459
     19455     19454     19457     19460     19456     19454     19457     19458
     19456     19454     19457     19459     19456     19454     19457     19460
     19458     19457     19460     19461     19458     19457     19460     19462
     19458     19457     19460     19463     19459     19457     19460     19461
     19459     19457     19460     19462     19459     19457     19460     19463
     19464     19468     19470     19471     19464     19468     19470     19472
     19464     19468     19473     19474     19464     19468     19473     19475
     19464     19468     19473     19479     19465     19464     19468     19469
     19465     19464     19468     19470     19465     19464     19468     19473
     19466     19464     19468     19469     19466     19464     19468     19470
     19466     19464     19468     19473     19467     19464     19468     19469
     19467     19464     19468     19470     19467     19464     19468     19473
     19468     19473     19479     19476     19469     19468     19470     19471
     19469     19468     19470     19472     19469     19468     19473     19474
     19469     19468     19473     19475     19469     19468     19473     19479
     19470     19468     19473     19474     19470     19468     19473     19475
     19470     19468     19473     19479     19471     19470     19468     19473
     19472     19470     19468     19473     19473     19479     19476     19477
     19473     19479     19476     19478     19473     19479     19476     19480
     19474     19473     19479     19476     19475     19473     19479     19476
     19476     19480     19481     19482     19476     19480     19481     19483
     19476     19480     19481     19484     19477     19476     19480     19481
     19478     19476     19480     19481     19479     19476     19480     19481
     19480     19481     19484     19485     19480     19481     19484     19486
     19480     19481     19484     19492     19481     19484     19486     19487
     19481     19484     19492     19493     19481     19484     19492     19494
     19481     19484     19492     19495     19482     19481     19484     19485
     19482     19481     19484     19486     19482     19481     19484     19492
     19483     19481     19484     19485     19483     19481     19484     19486
     19483     19481     19484     19492     19484     19486     19487     19488
     19484     19486     19487     19489     19484     19492     19495     19496
     19485     19484     19486     19487     19485     19484     19492     19493
     19485     19484     19492     19494     19485     19484     19492     19495
     19486     19484     19492     19493     19486     19484     19492     19494
     19486     19484     19492     19495     19486     19487     19489     19490
     19486     19487     19489     19491     19486     19487     19489     19501
     19487     19486     19484     19492     19487     19489     19501     19502
     19487     19489     19501     19503     19487     19489     19501     19504
     19488     19487     19489     19490     19488     19487     19489     19491
     19488     19487     19489     19501     19489     19501     19504     19505
     19489     19501     19504     19506     19489     19501     19504     19507
     19490     19489     19501     19502     19490     19489     19501     19503
     19490     19489     19501     19504     19491     19489     19501     19502
     19491     19489     19501     19503     19491     19489     19501     19504
     19492     19495     19496     19497     19492     19495     19496     19498
     19493     19492     19495     19496     19494     19492     19495     19496
     19495     19496     19498     19499     19495     19496     19498     19500
     19495     19496     19498     19548     19496     19498     19548     19549
     19496     19498     19548     19550     19496     19498     19548     19551
     19497     19496     19498     19499     19497     19496     19498     19500
     19497     19496     19498     19548     19498     19548     19551     19552
     19498     19548     19551     19553     19498     19548     19551     19554
     19499     19498     19548     19549     19499     19498     19548     19550
     19499     19498     19548     19551     19500     19498     19548     19549
     19500     19498     19548     19550     19500     19498     19548     19551
     19501     19504     19507     19508     19501     19504     19507     19509
     19502     19501     19504     19505     19502     19501     19504     19506
     19502     19501     19504     19507     19503     19501     19504     19505
     19503     19501     19504     19506     19503     19501     19504     19507
     19504     19507     19509     19510     19504     19507     19509     19511
     19505     19504     19507     19508     19505     19504     19507     19509
     19506     19504     19507     19508     19506     19504     19507     19509
     19507     19509     19511     19512     19507     19509     19511     19513
     19507     19509     19511     19514     19508     19507     19509     19510
     19508     19507     19509     19511     19509     19511     19514     19515
     19509     19511     19514     19516     19510     19509     19511     19512
     19510     19509     19511     19513     19510     19509     19511     19514
     19511     19514     19516     19517     19511     19514     19516     19518
     19512     19511     19514     19515     19512     19511     19514     19516
     19513     19511     19514     19515     19513     19511     19514     19516
     19514     19516     19518     19519     19514     19516     19518     19520
     19514     19516     19518     19521     19515     19514     19516     19517
     19515     19514     19516     19518     19516     19518     19521     19522
     19516     19518     19521     19523     19517     19516     19518     19519
     19517     19516     19518     19520     19517     19516     19518     19521
     19518     19521     19523     19524     19518     19521     19523     19525
     19519     19518     19521     19522     19519     19518     19521     19523
     19520     19518     19521     19522     19520     19518     19521     19523
     19521     19523     19525     19526     19521     19523     19525     19527
     19521     19523     19525     19528     19522     19521     19523     19524
     19522     19521     19523     19525     19523     19525     19528     19529
     19523     19525     19528     19530     19524     19523     19525     19526
     19524     19523     19525     19527     19524     19523     19525     19528
     19525     19528     19530     19531     19525     19528     19530     19532
     19526     19525     19528     19529     19526     19525     19528     19530
     19527     19525     19528     19529     19527     19525     19528     19530
     19528     19530     19532     19533     19528     19530     19532     19534
     19528     19530     19532     19535     19529     19528     19530     19531
     19529     19528     19530     19532     19530     19532     19535     19536
     19530     19532     19535     19537     19530     19532     19535     19538
     19531     19530     19532     19533     19531     19530     19532     19534
     19531     19530     19532     19535     19532     19535     19538     19539
     19532     19535     19538     19540     19532     19535     19538     19541
     19533     19532     19535     19536     19533     19532     19535     19537
     19533     19532     19535     19538     19534     19532     19535     19536
     19534     19532     19535     19537     19534     19532     19535     19538
     19535     19538     19541     19542     19535     19538     19541     19543
     19535     19538     19541     19544     19536     19535     19538     19539
     19536     19535     19538     19540     19536     19535     19538     19541
     19537     19535     19538     19539     19537     19535     19538     19540
     19537     19535     19538     19541     19538     19541     19544     19545
     19538     19541     19544     19546     19538     19541     19544     19547
     19539     19538     19541     19542     19539     19538     19541     19543
     19539     19538     19541     19544     19540     19538     19541     19542
     19540     19538     19541     19543     19540     19538     19541     19544
     19542     19541     19544     19545     19542     19541     19544     19546
     19542     19541     19544     19547     19543     19541     19544     19545
     19543     19541     19544     19546     19543     19541     19544     19547
     19548     19551     19554     19555     19548     19551     19554     19556
     19548     19551     19554     19557     19549     19548     19551     19552
     19549     19548     19551     19553     19549     19548     19551     19554
     19550     19548     19551     19552     19550     19548     19551     19553
     19550     19548     19551     19554     19551     19554     19557     19558
     19551     19554     19557     19559     19551     19554     19557     19560
     19552     19551     19554     19555     19552     19551     19554     19556
     19552     19551     19554     19557     19553     19551     19554     19555
     19553     19551     19554     19556     19553     19551     19554     19557
     19554     19557     19560     19561     19554     19557     19560     19562
     19554     19557     19560     19563     19555     19554     19557     19558
     19555     19554     19557     19559     19555     19554     19557     19560
     19556     19554     19557     19558     19556     19554     19557     19559
     19556     19554     19557     19560     19557     19560     19563     19564
     19557     19560     19563     19565     19557     19560     19563     19566
     19558     19557     19560     19561     19558     19557     19560     19562
     19558     19557     19560     19563     19559     19557     19560     19561
     19559     19557     19560     19562     19559     19557     19560     19563
     19560     19563     19566     19567     19560     19563     19566     19568
     19560     19563     19566     19569     19561     19560     19563     19564
     19561     19560     19563     19565     19561     19560     19563     19566
     19562     19560     19563     19564     19562     19560     19563     19565
     19562     19560     19563     19566     19563     19566     19569     19570
     19563     19566     19569     19571     19563     19566     19569     19572
     19564     19563     19566     19567     19564     19563     19566     19568
     19564     19563     19566     19569     19565     19563     19566     19567
     19565     19563     19566     19568     19565     19563     19566     19569
     19566     19569     19572     19573     19566     19569     19572     19574
     19566     19569     19572     19575     19567     19566     19569     19570
     19567     19566     19569     19571     19567     19566     19569     19572
     19568     19566     19569     19570     19568     19566     19569     19571
     19568     19566     19569     19572     19569     19572     19575     19576
     19569     19572     19575     19577     19569     19572     19575     19578
     19570     19569     19572     19573     19570     19569     19572     19574
     19570     19569     19572     19575     19571     19569     19572     19573
     19571     19569     19572     19574     19571     19569     19572     19575
     19572     19575     19578     19579     19572     19575     19578     19580
     19572     19575     19578     19581     19573     19572     19575     19576
     19573     19572     19575     19577     19573     19572     19575     19578
     19574     19572     19575     19576     19574     19572     19575     19577
     19574     19572     19575     19578     19575     19578     19581     19582
     19575     19578     19581     19583     19575     19578     19581     19584
     19576     19575     19578     19579     19576     19575     19578     19580
     19576     19575     19578     19581     19577     19575     19578     19579
     19577     19575     19578     19580     19577     19575     19578     19581
     19578     19581     19584     19585     19578     19581     19584     19586
     19578     19581     19584     19587     19579     19578     19581     19582
     19579     19578     19581     19583     19579     19578     19581     19584
     19580     19578     19581     19582     19580     19578     19581     19583
     19580     19578     19581     19584     19581     19584     19587     19588
     19581     19584     19587     19589     19581     19584     19587     19590
     19582     19581     19584     19585     19582     19581     19584     19586
     19582     19581     19584     19587     19583     19581     19584     19585
     19583     19581     19584     19586     19583     19581     19584     19587
     19584     19587     19590     19591     19584     19587     19590     19592
     19584     19587     19590     19593     19585     19584     19587     19588
     19585     19584     19587     19589     19585     19584     19587     19590
     19586     19584     19587     19588     19586     19584     19587     19589
     19586     19584     19587     19590     19587     19590     19593     19594
     19587     19590     19593     19595     19587     19590     19593     19596
     19588     19587     19590     19591     19588     19587     19590     19592
     19588     19587     19590     19593     19589     19587     19590     19591
     19589     19587     19590     19592     19589     19587     19590     19593
     19591     19590     19593     19594     19591     19590     19593     19595
     19591     19590     19593     19596     19592     19590     19593     19594
     19592     19590     19593     19595     19592     19590     19593     19596
     19597     19610     19613     19614     19597     19610     19613     19615
     19597     19610     19613     19620     19598     19597     19602     19603
     19598     19597     19602     19604     19598     19597     19602     19605
     19598     19597     19606     19607     19598     19597     19606     19608
     19598     19597     19606     19609     19598     19597     19610     19611
     19598     19597     19610     19612     19598     19597     19610     19613
     19599     19598     19597     19602     19599     19598     19597     19606
     19599     19598     19597     19610     19600     19598     19597     19602
     19600     19598     19597     19606     19600     19598     19597     19610
     19601     19598     19597     19602     19601     19598     19597     19606
     19601     19598     19597     19610     19602     19597     19606     19607
     19602     19597     19606     19608     19602     19597     19606     19609
     19602     19597     19610     19611     19602     19597     19610     19612
     19602     19597     19610     19613     19603     19602     19597     19606
     19603     19602     19597     19610     19604     19602     19597     19606
     19604     19602     19597     19610     19605     19602     19597     19606
     19605     19602     19597     19610     19606     19597     19610     19611
     19606     19597     19610     19612     19606     19597     19610     19613
     19607     19606     19597     19610     19608     19606     19597     19610
     19609     19606     19597     19610     19610     19613     19620     19616
     19611     19610     19613     19614     19611     19610     19613     19615
     19611     19610     19613     19620     19612     19610     19613     19614
     19612     19610     19613     19615     19612     19610     19613     19620
     19613     19620     19616     19617     19613     19620     19616     19618
     19613     19620     19616     19619     19614     19613     19620     19616
     19615     19613     19620     19616     19616     19619     19621     19622
     19616     19619     19621     19623     19616     19619     19621     19626
     19617     19616     19619     19621     19618     19616     19619     19621
     19619     19621     19626     19624     19619     19621     19626     19627
     19619     19621     19626     19628     19620     19616     19619     19621
     19621     19626     19624     19625     19621     19626     19624     19676
     19621     19626     19628     19629     19621     19626     19628     19630
     19621     19626     19628     19632     19622     19621     19626     19624
     19622     19621     19626     19627     19622     19621     19626     19628
     19623     19621     19626     19624     19623     19621     19626     19627
     19623     19621     19626     19628     19624     19626     19628     19629
     19624     19626     19628     19630     19624     19626     19628     19632
     19624     19676     19678     19679     19624     19676     19678     19680
     19624     19676     19678     19681     19625     19624     19626     19627
     19625     19624     19626     19628     19625     19624     19676     19677
     19625     19624     19676     19678     19626     19624     19676     19677
     19626     19624     19676     19678     19626     19628     19630     19631
     19626     19628     19632     19633     19626     19628     19632     19634
     19627     19626     19624     19676     19627     19626     19628     19629
     19627     19626     19628     19630     19627     19626     19628     19632
     19628     19626     19624     19676     19628     19632     19634     19635
     19628     19632     19634     19636     19629     19628     19630     19631
     19629     19628     19632     19633     19629     19628     19632     19634
     19630     19628     19632     19633     19630     19628     19632     19634
     19631     19630     19628     19632     19632     19634     19636     19637
     19632     19634     19636     19638     19632     19634     19636     19639
     19633     19632     19634     19635     19633     19632     19634     19636
     19634     19636     19639     19640     19634     19636     19639     19641
     19634     19636     19639     19642     19635     19634     19636     19637
     19635     19634     19636     19638     19635     19634     19636     19639
     19636     19639     19642     19643     19636     19639     19642     19644
     19636     19639     19642     19645     19637     19636     19639     19640
     19637     19636     19639     19641     19637     19636     19639     19642
     19638     19636     19639     19640     19638     19636     19639     19641
     19638     19636     19639     19642     19639     19642     19645     19646
     19639     19642     19645     19647     19639     19642     19645     19648
     19640     19639     19642     19643     19640     19639     19642     19644
     19640     19639     19642     19645     19641     19639     19642     19643
     19641     19639     19642     19644     19641     19639     19642     19645
     19642     19645     19648     19649     19642     19645     19648     19650
     19642     19645     19648     19651     19643     19642     19645     19646
     19643     19642     19645     19647     19643     19642     19645     19648
     19644     19642     19645     19646     19644     19642     19645     19647
     19644     19642     19645     19648     19645     19648     19651     19652
     19645     19648     19651     19653     19645     19648     19651     19654
     19646     19645     19648     19649     19646     19645     19648     19650
     19646     19645     19648     19651     19647     19645     19648     19649
     19647     19645     19648     19650     19647     19645     19648     19651
     19648     19651     19654     19655     19648     19651     19654     19656
     19648     19651     19654     19657     19649     19648     19651     19652
     19649     19648     19651     19653     19649     19648     19651     19654
     19650     19648     19651     19652     19650     19648     19651     19653
     19650     19648     19651     19654     19651     19654     19657     19658
     19651     19654     19657     19659     19651     19654     19657     19660
     19652     19651     19654     19655     19652     19651     19654     19656
     19652     19651     19654     19657     19653     19651     19654     19655
     19653     19651     19654     19656     19653     19651     19654     19657
     19654     19657     19660     19661     19654     19657     19660     19662
     19654     19657     19660     19663     19655     19654     19657     19658
     19655     19654     19657     19659     19655     19654     19657     19660
     19656     19654     19657     19658     19656     19654     19657     19659
     19656     19654     19657     19660     19657     19660     19663     19664
     19657     19660     19663     19665     19657     19660     19663     19666
     19658     19657     19660     19661     19658     19657     19660     19662
     19658     19657     19660     19663     19659     19657     19660     19661
     19659     19657     19660     19662     19659     19657     19660     19663
     19660     19663     19666     19667     19660     19663     19666     19668
     19660     19663     19666     19669     19661     19660     19663     19664
     19661     19660     19663     19665     19661     19660     19663     19666
     19662     19660     19663     19664     19662     19660     19663     19665
     19662     19660     19663     19666     19663     19666     19669     19670
     19663     19666     19669     19671     19663     19666     19669     19672
     19664     19663     19666     19667     19664     19663     19666     19668
     19664     19663     19666     19669     19665     19663     19666     19667
     19665     19663     19666     19668     19665     19663     19666     19669
     19666     19669     19672     19673     19666     19669     19672     19674
     19666     19669     19672     19675     19667     19666     19669     19670
     19667     19666     19669     19671     19667     19666     19669     19672
     19668     19666     19669     19670     19668     19666     19669     19671
     19668     19666     19669     19672     19670     19669     19672     19673
     19670     19669     19672     19674     19670     19669     19672     19675
     19671     19669     19672     19673     19671     19669     19672     19674
     19671     19669     19672     19675     19676     19678     19681     19682
     19676     19678     19681     19683     19676     19678     19681     19684
     19677     19676     19678     19679     19677     19676     19678     19680
     19677     19676     19678     19681     19678     19681     19684     19685
     19678     19681     19684     19686     19678     19681     19684     19687
     19679     19678     19681     19682     19679     19678     19681     19683
     19679     19678     19681     19684     19680     19678     19681     19682
     19680     19678     19681     19683     19680     19678     19681     19684
     19681     19684     19687     19688     19681     19684     19687     19689
     19681     19684     19687     19690     19682     19681     19684     19685
     19682     19681     19684     19686     19682     19681     19684     19687
     19683     19681     19684     19685     19683     19681     19684     19686
     19683     19681     19684     19687     19684     19687     19690     19691
     19684     19687     19690     19692     19684     19687     19690     19693
     19685     19684     19687     19688     19685     19684     19687     19689
     19685     19684     19687     19690     19686     19684     19687     19688
     19686     19684     19687     19689     19686     19684     19687     19690
     19687     19690     19693     19694     19687     19690     19693     19695
     19687     19690     19693     19696     19688     19687     19690     19691
     19688     19687     19690     19692     19688     19687     19690     19693
     19689     19687     19690     19691     19689     19687     19690     19692
     19689     19687     19690     19693     19690     19693     19696     19697
     19690     19693     19696     19698     19690     19693     19696     19699
     19691     19690     19693     19694     19691     19690     19693     19695
     19691     19690     19693     19696     19692     19690     19693     19694
     19692     19690     19693     19695     19692     19690     19693     19696
     19693     19696     19699     19700     19693     19696     19699     19701
     19694     19693     19696     19697     19694     19693     19696     19698
     19694     19693     19696     19699     19695     19693     19696     19697
     19695     19693     19696     19698     19695     19693     19696     19699
     19696     19699     19701     19702     19696     19699     19701     19703
     19697     19696     19699     19700     19697     19696     19699     19701
     19698     19696     19699     19700     19698     19696     19699     19701
     19699     19701     19703     19704     19699     19701     19703     19705
     19699     19701     19703     19706     19700     19699     19701     19702
     19700     19699     19701     19703     19701     19703     19706     19707
     19701     19703     19706     19708     19701     19703     19706     19709
     19702     19701     19703     19704     19702     19701     19703     19705
     19702     19701     19703     19706     19703     19706     19709     19710
     19703     19706     19709     19711     19703     19706     19709     19712
     19704     19703     19706     19707     19704     19703     19706     19708
     19704     19703     19706     19709     19705     19703     19706     19707
     19705     19703     19706     19708     19705     19703     19706     19709
     19706     19709     19712     19713     19706     19709     19712     19714
     19706     19709     19712     19715     19707     19706     19709     19710
     19707     19706     19709     19711     19707     19706     19709     19712
     19708     19706     19709     19710     19708     19706     19709     19711
     19708     19706     19709     19712     19709     19712     19715     19716
     19709     19712     19715     19717     19709     19712     19715     19718
     19710     19709     19712     19713     19710     19709     19712     19714
     19710     19709     19712     19715     19711     19709     19712     19713
     19711     19709     19712     19714     19711     19709     19712     19715
     19712     19715     19718     19719     19712     19715     19718     19720
     19712     19715     19718     19721     19713     19712     19715     19716
     19713     19712     19715     19717     19713     19712     19715     19718
     19714     19712     19715     19716     19714     19712     19715     19717
     19714     19712     19715     19718     19715     19718     19721     19722
     19715     19718     19721     19723     19715     19718     19721     19724
     19716     19715     19718     19719     19716     19715     19718     19720
     19716     19715     19718     19721     19717     19715     19718     19719
     19717     19715     19718     19720     19717     19715     19718     19721
     19718     19721     19724     19725     19718     19721     19724     19726
     19718     19721     19724     19727     19719     19718     19721     19722
     19719     19718     19721     19723     19719     19718     19721     19724
     19720     19718     19721     19722     19720     19718     19721     19723
     19720     19718     19721     19724     19722     19721     19724     19725
     19722     19721     19724     19726     19722     19721     19724     19727
     19723     19721     19724     19725     19723     19721     19724     19726
     19723     19721     19724     19727     19728     19741     19744     19745
     19728     19741     19744     19746     19728     19741     19744     19750
     19729     19728     19733     19734     19729     19728     19733     19735
     19729     19728     19733     19736     19729     19728     19737     19738
     19729     19728     19737     19739     19729     19728     19737     19740
     19729     19728     19741     19742     19729     19728     19741     19743
     19729     19728     19741     19744     19730     19729     19728     19733
     19730     19729     19728     19737     19730     19729     19728     19741
     19731     19729     19728     19733     19731     19729     19728     19737
     19731     19729     19728     19741     19732     19729     19728     19733
     19732     19729     19728     19737     19732     19729     19728     19741
     19733     19728     19737     19738     19733     19728     19737     19739
     19733     19728     19737     19740     19733     19728     19741     19742
     19733     19728     19741     19743     19733     19728     19741     19744
     19734     19733     19728     19737     19734     19733     19728     19741
     19735     19733     19728     19737     19735     19733     19728     19741
     19736     19733     19728     19737     19736     19733     19728     19741
     19737     19728     19741     19742     19737     19728     19741     19743
     19737     19728     19741     19744     19738     19737     19728     19741
     19739     19737     19728     19741     19740     19737     19728     19741
     19741     19744     19750     19747     19742     19741     19744     19745
     19742     19741     19744     19746     19742     19741     19744     19750
     19743     19741     19744     19745     19743     19741     19744     19746
     19743     19741     19744     19750     19744     19750     19747     19748
     19744     19750     19747     19749     19744     19750     19747     19751
     19745     19744     19750     19747     19746     19744     19750     19747
     19747     19751     19752     19753     19747     19751     19752     19754
     19747     19751     19752     19755     19748     19747     19751     19752
     19749     19747     19751     19752     19750     19747     19751     19752
     19751     19752     19755     19756     19751     19752     19755     19757
     19751     19752     19755     19763     19752     19755     19757     19758
     19752     19755     19763     19764     19752     19755     19763     19765
     19752     19755     19763     19766     19753     19752     19755     19756
     19753     19752     19755     19757     19753     19752     19755     19763
     19754     19752     19755     19756     19754     19752     19755     19757
     19754     19752     19755     19763     19755     19757     19758     19759
     19755     19757     19758     19760     19755     19763     19766     19767
     19756     19755     19757     19758     19756     19755     19763     19764
     19756     19755     19763     19765     19756     19755     19763     19766
     19757     19755     19763     19764     19757     19755     19763     19765
     19757     19755     19763     19766     19757     19758     19760     19761
     19757     19758     19760     19762     19757     19758     19760     19772
     19758     19757     19755     19763     19758     19760     19772     19773
     19758     19760     19772     19774     19758     19760     19772     19775
     19759     19758     19760     19761     19759     19758     19760     19762
     19759     19758     19760     19772     19760     19772     19775     19776
     19760     19772     19775     19777     19760     19772     19775     19778
     19761     19760     19772     19773     19761     19760     19772     19774
     19761     19760     19772     19775     19762     19760     19772     19773
     19762     19760     19772     19774     19762     19760     19772     19775
     19763     19766     19767     19768     19763     19766     19767     19769
     19764     19763     19766     19767     19765     19763     19766     19767
     19766     19767     19769     19770     19766     19767     19769     19771
     19766     19767     19769     19817     19767     19769     19817     19818
     19767     19769     19817     19819     19767     19769     19817     19820
     19768     19767     19769     19770     19768     19767     19769     19771
     19768     19767     19769     19817     19769     19817     19820     19821
     19769     19817     19820     19822     19769     19817     19820     19823
     19770     19769     19817     19818     19770     19769     19817     19819
     19770     19769     19817     19820     19771     19769     19817     19818
     19771     19769     19817     19819     19771     19769     19817     19820
     19772     19775     19778     19779     19772     19775     19778     19780
     19772     19775     19778     19781     19773     19772     19775     19776
     19773     19772     19775     19777     19773     19772     19775     19778
     19774     19772     19775     19776     19774     19772     19775     19777
     19774     19772     19775     19778     19775     19778     19781     19782
     19775     19778     19781     19783     19775     19778     19781     19784
     19776     19775     19778     19779     19776     19775     19778     19780
     19776     19775     19778     19781     19777     19775     19778     19779
     19777     19775     19778     19780     19777     19775     19778     19781
     19778     19781     19784     19785     19778     19781     19784     19786
     19778     19781     19784     19787     19779     19778     19781     19782
     19779     19778     19781     19783     19779     19778     19781     19784
     19780     19778     19781     19782     19780     19778     19781     19783
     19780     19778     19781     19784     19781     19784     19787     19788
     19781     19784     19787     19789     19781     19784     19787     19790
     19782     19781     19784     19785     19782     19781     19784     19786
     19782     19781     19784     19787     19783     19781     19784     19785
     19783     19781     19784     19786     19783     19781     19784     19787
     19784     19787     19790     19791     19784     19787     19790     19792
     19785     19784     19787     19788     19785     19784     19787     19789
     19785     19784     19787     19790     19786     19784     19787     19788
     19786     19784     19787     19789     19786     19784     19787     19790
     19787     19790     19792     19793     19787     19790     19792     19794
     19788     19787     19790     19791     19788     19787     19790     19792
     19789     19787     19790     19791     19789     19787     19790     19792
     19790     19792     19794     19795     19790     19792     19794     19796
     19790     19792     19794     19797     19791     19790     19792     19793
     19791     19790     19792     19794     19792     19794     19797     19798
     19792     19794     19797     19799     19793     19792     19794     19795
     19793     19792     19794     19796     19793     19792     19794     19797
     19794     19797     19799     19800     19794     19797     19799     19801
     19795     19794     19797     19798     19795     19794     19797     19799
     19796     19794     19797     19798     19796     19794     19797     19799
     19797     19799     19801     19802     19797     19799     19801     19803
     19797     19799     19801     19804     19798     19797     19799     19800
     19798     19797     19799     19801     19799     19801     19804     19805
     19799     19801     19804     19806     19799     19801     19804     19807
     19800     19799     19801     19802     19800     19799     19801     19803
     19800     19799     19801     19804     19801     19804     19807     19808
     19801     19804     19807     19809     19801     19804     19807     19810
     19802     19801     19804     19805     19802     19801     19804     19806
     19802     19801     19804     19807     19803     19801     19804     19805
     19803     19801     19804     19806     19803     19801     19804     19807
     19804     19807     19810     19811     19804     19807     19810     19812
     19804     19807     19810     19813     19805     19804     19807     19808
     19805     19804     19807     19809     19805     19804     19807     19810
     19806     19804     19807     19808     19806     19804     19807     19809
     19806     19804     19807     19810     19807     19810     19813     19814
     19807     19810     19813     19815     19807     19810     19813     19816
     19808     19807     19810     19811     19808     19807     19810     19812
     19808     19807     19810     19813     19809     19807     19810     19811
     19809     19807     19810     19812     19809     19807     19810     19813
     19811     19810     19813     19814     19811     19810     19813     19815
     19811     19810     19813     19816     19812     19810     19813     19814
     19812     19810     19813     19815     19812     19810     19813     19816
     19817     19820     19823     19824     19817     19820     19823     19825
     19817     19820     19823     19826     19818     19817     19820     19821
     19818     19817     19820     19822     19818     19817     19820     19823
     19819     19817     19820     19821     19819     19817     19820     19822
     19819     19817     19820     19823     19820     19823     19826     19827
     19820     19823     19826     19828     19820     19823     19826     19829
     19821     19820     19823     19824     19821     19820     19823     19825
     19821     19820     19823     19826     19822     19820     19823     19824
     19822     19820     19823     19825     19822     19820     19823     19826
     19823     19826     19829     19830     19823     19826     19829     19831
     19823     19826     19829     19832     19824     19823     19826     19827
     19824     19823     19826     19828     19824     19823     19826     19829
     19825     19823     19826     19827     19825     19823     19826     19828
     19825     19823     19826     19829     19826     19829     19832     19833
     19826     19829     19832     19834     19826     19829     19832     19835
     19827     19826     19829     19830     19827     19826     19829     19831
     19827     19826     19829     19832     19828     19826     19829     19830
     19828     19826     19829     19831     19828     19826     19829     19832
     19829     19832     19835     19836     19829     19832     19835     19837
     19829     19832     19835     19838     19830     19829     19832     19833
     19830     19829     19832     19834     19830     19829     19832     19835
     19831     19829     19832     19833     19831     19829     19832     19834
     19831     19829     19832     19835     19832     19835     19838     19839
     19832     19835     19838     19840     19832     19835     19838     19841
     19833     19832     19835     19836     19833     19832     19835     19837
     19833     19832     19835     19838     19834     19832     19835     19836
     19834     19832     19835     19837     19834     19832     19835     19838
     19835     19838     19841     19842     19835     19838     19841     19843
     19835     19838     19841     19844     19836     19835     19838     19839
     19836     19835     19838     19840     19836     19835     19838     19841
     19837     19835     19838     19839     19837     19835     19838     19840
     19837     19835     19838     19841     19838     19841     19844     19845
     19838     19841     19844     19846     19838     19841     19844     19847
     19839     19838     19841     19842     19839     19838     19841     19843
     19839     19838     19841     19844     19840     19838     19841     19842
     19840     19838     19841     19843     19840     19838     19841     19844
     19841     19844     19847     19848     19841     19844     19847     19849
     19841     19844     19847     19850     19842     19841     19844     19845
     19842     19841     19844     19846     19842     19841     19844     19847
     19843     19841     19844     19845     19843     19841     19844     19846
     19843     19841     19844     19847     19844     19847     19850     19851
     19844     19847     19850     19852     19844     19847     19850     19853
     19845     19844     19847     19848     19845     19844     19847     19849
     19845     19844     19847     19850     19846     19844     19847     19848
     19846     19844     19847     19849     19846     19844     19847     19850
     19847     19850     19853     19854     19847     19850     19853     19855
     19847     19850     19853     19856     19848     19847     19850     19851
     19848     19847     19850     19852     19848     19847     19850     19853
     19849     19847     19850     19851     19849     19847     19850     19852
     19849     19847     19850     19853     19850     19853     19856     19857
     19850     19853     19856     19858     19850     19853     19856     19859
     19851     19850     19853     19854     19851     19850     19853     19855
     19851     19850     19853     19856     19852     19850     19853     19854
     19852     19850     19853     19855     19852     19850     19853     19856
     19853     19856     19859     19860     19853     19856     19859     19861
     19853     19856     19859     19862     19854     19853     19856     19857
     19854     19853     19856     19858     19854     19853     19856     19859
     19855     19853     19856     19857     19855     19853     19856     19858
     19855     19853     19856     19859     19856     19859     19862     19863
     19856     19859     19862     19864     19856     19859     19862     19865
     19857     19856     19859     19860     19857     19856     19859     19861
     19857     19856     19859     19862     19858     19856     19859     19860
     19858     19856     19859     19861     19858     19856     19859     19862
     19860     19859     19862     19863     19860     19859     19862     19864
     19860     19859     19862     19865     19861     19859     19862     19863
     19861     19859     19862     19864     19861     19859     19862     19865
     19866     19870     19873     19874     19866     19870     19873     19875
     19866     19870     19873     19879     19867     19866     19870     19871
     19867     19866     19870     19872     19867     19866     19870     19873
     19868     19866     19870     19871     19868     19866     19870     19872
     19868     19866     19870     19873     19869     19866     19870     19871
     19869     19866     19870     19872     19869     19866     19870     19873
     19870     19873     19879     19876     19871     19870     19873     19874
     19871     19870     19873     19875     19871     19870     19873     19879
     19872     19870     19873     19874     19872     19870     19873     19875
     19872     19870     19873     19879     19873     19879     19876     19877
     19873     19879     19876     19878     19873     19879     19876     19880
     19874     19873     19879     19876     19875     19873     19879     19876
     19876     19880     19881     19882     19876     19880     19881     19883
     19876     19880     19881     19884     19877     19876     19880     19881
     19878     19876     19880     19881     19879     19876     19880     19881
     19880     19881     19884     19885     19880     19881     19884     19886
     19880     19881     19884     19892     19881     19884     19886     19887
     19881     19884     19892     19893     19881     19884     19892     19894
     19881     19884     19892     19895     19882     19881     19884     19885
     19882     19881     19884     19886     19882     19881     19884     19892
     19883     19881     19884     19885     19883     19881     19884     19886
     19883     19881     19884     19892     19884     19886     19887     19888
     19884     19886     19887     19889     19884     19892     19895     19896
     19885     19884     19886     19887     19885     19884     19892     19893
     19885     19884     19892     19894     19885     19884     19892     19895
     19886     19884     19892     19893     19886     19884     19892     19894
     19886     19884     19892     19895     19886     19887     19889     19890
     19886     19887     19889     19891     19886     19887     19889     19901
     19887     19886     19884     19892     19887     19889     19901     19902
     19887     19889     19901     19903     19887     19889     19901     19904
     19888     19887     19889     19890     19888     19887     19889     19891
     19888     19887     19889     19901     19889     19901     19904     19905
     19889     19901     19904     19906     19889     19901     19904     19907
     19890     19889     19901     19902     19890     19889     19901     19903
     19890     19889     19901     19904     19891     19889     19901     19902
     19891     19889     19901     19903     19891     19889     19901     19904
     19892     19895     19896     19897     19892     19895     19896     19898
     19893     19892     19895     19896     19894     19892     19895     19896
     19895     19896     19898     19899     19895     19896     19898     19900
     19895     19896     19898     19948     19896     19898     19948     19949
     19896     19898     19948     19950     19896     19898     19948     19951
     19897     19896     19898     19899     19897     19896     19898     19900
     19897     19896     19898     19948     19898     19948     19951     19952
     19898     19948     19951     19953     19898     19948     19951     19954
     19899     19898     19948     19949     19899     19898     19948     19950
     19899     19898     19948     19951     19900     19898     19948     19949
     19900     19898     19948     19950     19900     19898     19948     19951
     19901     19904     19907     19908     19901     19904     19907     19909
     19901     19904     19907     19910     19902     19901     19904     19905
     19902     19901     19904     19906     19902     19901     19904     19907
     19903     19901     19904     19905     19903     19901     19904     19906
     19903     19901     19904     19907     19904     19907     19910     19911
     19904     19907     19910     19912     19904     19907     19910     19913
     19905     19904     19907     19908     19905     19904     19907     19909
     19905     19904     19907     19910     19906     19904     19907     19908
     19906     19904     19907     19909     19906     19904     19907     19910
     19907     19910     19913     19914     19907     19910     19913     19915
     19907     19910     19913     19916     19908     19907     19910     19911
     19908     19907     19910     19912     19908     19907     19910     19913
     19909     19907     19910     19911     19909     19907     19910     19912
     19909     19907     19910     19913     19910     19913     19916     19917
     19910     19913     19916     19918     19910     19913     19916     19919
     19911     19910     19913     19914     19911     19910     19913     19915
     19911     19910     19913     19916     19912     19910     19913     19914
     19912     19910     19913     19915     19912     19910     19913     19916
     19913     19916     19919     19920     19913     19916     19919     19921
     19914     19913     19916     19917     19914     19913     19916     19918
     19914     19913     19916     19919     19915     19913     19916     19917
     19915     19913     19916     19918     19915     19913     19916     19919
     19916     19919     19921     19922     19916     19919     19921     19923
     19917     19916     19919     19920     19917     19916     19919     19921
     19918     19916     19919     19920     19918     19916     19919     19921
     19919     19921     19923     19924     19919     19921     19923     19925
     19919     19921     19923     19926     19920     19919     19921     19922
     19920     19919     19921     19923     19921     19923     19926     19927
     19921     19923     19926     19928     19921     19923     19926     19929
     19922     19921     19923     19924     19922     19921     19923     19925
     19922     19921     19923     19926     19923     19926     19929     19930
     19923     19926     19929     19931     19923     19926     19929     19932
     19924     19923     19926     19927     19924     19923     19926     19928
     19924     19923     19926     19929     19925     19923     19926     19927
     19925     19923     19926     19928     19925     19923     19926     19929
     19926     19929     19932     19933     19926     19929     19932     19934
     19926     19929     19932     19935     19927     19926     19929     19930
     19927     19926     19929     19931     19927     19926     19929     19932
     19928     19926     19929     19930     19928     19926     19929     19931
     19928     19926     19929     19932     19929     19932     19935     19936
     19929     19932     19935     19937     19929     19932     19935     19938
     19930     19929     19932     19933     19930     19929     19932     19934
     19930     19929     19932     19935     19931     19929     19932     19933
     19931     19929     19932     19934     19931     19929     19932     19935
     19932     19935     19938     19939     19932     19935     19938     19940
     19932     19935     19938     19941     19933     19932     19935     19936
     19933     19932     19935     19937     19933     19932     19935     19938
     19934     19932     19935     19936     19934     19932     19935     19937
     19934     19932     19935     19938     19935     19938     19941     19942
     19935     19938     19941     19943     19935     19938     19941     19944
     19936     19935     19938     19939     19936     19935     19938     19940
     19936     19935     19938     19941     19937     19935     19938     19939
     19937     19935     19938     19940     19937     19935     19938     19941
     19938     19941     19944     19945     19938     19941     19944     19946
     19938     19941     19944     19947     19939     19938     19941     19942
     19939     19938     19941     19943     19939     19938     19941     19944
     19940     19938     19941     19942     19940     19938     19941     19943
     19940     19938     19941     19944     19942     19941     19944     19945
     19942     19941     19944     19946     19942     19941     19944     19947
     19943     19941     19944     19945     19943     19941     19944     19946
     19943     19941     19944     19947     19948     19951     19954     19955
     19948     19951     19954     19956     19948     19951     19954     19957
     19949     19948     19951     19952     19949     19948     19951     19953
     19949     19948     19951     19954     19950     19948     19951     19952
     19950     19948     19951     19953     19950     19948     19951     19954
     19951     19954     19957     19958     19951     19954     19957     19959
     19951     19954     19957     19960     19952     19951     19954     19955
     19952     19951     19954     19956     19952     19951     19954     19957
     19953     19951     19954     19955     19953     19951     19954     19956
     19953     19951     19954     19957     19954     19957     19960     19961
     19954     19957     19960     19962     19954     19957     19960     19963
     19955     19954     19957     19958     19955     19954     19957     19959
     19955     19954     19957     19960     19956     19954     19957     19958
     19956     19954     19957     19959     19956     19954     19957     19960
     19957     19960     19963     19964     19957     19960     19963     19965
     19957     19960     19963     19966     19958     19957     19960     19961
     19958     19957     19960     19962     19958     19957     19960     19963
     19959     19957     19960     19961     19959     19957     19960     19962
     19959     19957     19960     19963     19960     19963     19966     19967
     19960     19963     19966     19968     19960     19963     19966     19969
     19961     19960     19963     19964     19961     19960     19963     19965
     19961     19960     19963     19966     19962     19960     19963     19964
     19962     19960     19963     19965     19962     19960     19963     19966
     19963     19966     19969     19970     19963     19966     19969     19971
     19963     19966     19969     19972     19964     19963     19966     19967
     19964     19963     19966     19968     19964     19963     19966     19969
     19965     19963     19966     19967     19965     19963     19966     19968
     19965     19963     19966     19969     19966     19969     19972     19973
     19966     19969     19972     19974     19966     19969     19972     19975
     19967     19966     19969     19970     19967     19966     19969     19971
     19967     19966     19969     19972     19968     19966     19969     19970
     19968     19966     19969     19971     19968     19966     19969     19972
     19969     19972     19975     19976     19969     19972     19975     19977
     19969     19972     19975     19978     19970     19969     19972     19973
     19970     19969     19972     19974     19970     19969     19972     19975
     19971     19969     19972     19973     19971     19969     19972     19974
     19971     19969     19972     19975     19972     19975     19978     19979
     19972     19975     19978     19980     19972     19975     19978     19981
     19973     19972     19975     19976     19973     19972     19975     19977
     19973     19972     19975     19978     19974     19972     19975     19976
     19974     19972     19975     19977     19974     19972     19975     19978
     19975     19978     19981     19982     19975     19978     19981     19983
     19975     19978     19981     19984     19976     19975     19978     19979
     19976     19975     19978     19980     19976     19975     19978     19981
     19977     19975     19978     19979     19977     19975     19978     19980
     19977     19975     19978     19981     19978     19981     19984     19985
     19978     19981     19984     19986     19978     19981     19984     19987
     19979     19978     19981     19982     19979     19978     19981     19983
     19979     19978     19981     19984     19980     19978     19981     19982
     19980     19978     19981     19983     19980     19978     19981     19984
     19981     19984     19987     19988     19981     19984     19987     19989
     19981     19984     19987     19990     19982     19981     19984     19985
     19982     19981     19984     19986     19982     19981     19984     19987
     19983     19981     19984     19985     19983     19981     19984     19986
     19983     19981     19984     19987     19984     19987     19990     19991
     19984     19987     19990     19992     19984     19987     19990     19993
     19985     19984     19987     19988     19985     19984     19987     19989
     19985     19984     19987     19990     19986     19984     19987     19988
     19986     19984     19987     19989     19986     19984     19987     19990
     19987     19990     19993     19994     19987     19990     19993     19995
     19987     19990     19993     19996     19988     19987     19990     19991
     19988     19987     19990     19992     19988     19987     19990     19993
     19989     19987     19990     19991     19989     19987     19990     19992
     19989     19987     19990     19993     19991     19990     19993     19994
     19991     19990     19993     19995     19991     19990     19993     19996
     19992     19990     19993     19994     19992     19990     19993     19995
     19992     19990     19993     19996     19997     20001     20004     20005
     19997     20001     20004     20006     19997     20001     20004     20010
     19998     19997     20001     20002     19998     19997     20001     20003
     19998     19997     20001     20004     19999     19997     20001     20002
     19999     19997     20001     20003     19999     19997     20001     20004
     20000     19997     20001     20002     20000     19997     20001     20003
     20000     19997     20001     20004     20001     20004     20010     20007
     20002     20001     20004     20005     20002     20001     20004     20006
     20002     20001     20004     20010     20003     20001     20004     20005
     20003     20001     20004     20006     20003     20001     20004     20010
     20004     20010     20007     20008     20004     20010     20007     20009
     20004     20010     20007     20011     20005     20004     20010     20007
     20006     20004     20010     20007     20007     20011     20012     20013
     20007     20011     20012     20014     20007     20011     20012     20015
     20008     20007     20011     20012     20009     20007     20011     20012
     20010     20007     20011     20012     20011     20012     20015     20016
     20011     20012     20015     20017     20011     20012     20015     20023
     20012     20015     20017     20018     20012     20015     20023     20024
     20012     20015     20023     20025     20012     20015     20023     20026
     20013     20012     20015     20016     20013     20012     20015     20017
     20013     20012     20015     20023     20014     20012     20015     20016
     20014     20012     20015     20017     20014     20012     20015     20023
     20015     20017     20018     20019     20015     20017     20018     20020
     20015     20023     20026     20027     20016     20015     20017     20018
     20016     20015     20023     20024     20016     20015     20023     20025
     20016     20015     20023     20026     20017     20015     20023     20024
     20017     20015     20023     20025     20017     20015     20023     20026
     20017     20018     20020     20021     20017     20018     20020     20022
     20017     20018     20020     20032     20018     20017     20015     20023
     20018     20020     20032     20033     20018     20020     20032     20034
     20018     20020     20032     20035     20019     20018     20020     20021
     20019     20018     20020     20022     20019     20018     20020     20032
     20020     20032     20035     20036     20020     20032     20035     20037
     20020     20032     20035     20038     20021     20020     20032     20033
     20021     20020     20032     20034     20021     20020     20032     20035
     20022     20020     20032     20033     20022     20020     20032     20034
     20022     20020     20032     20035     20023     20026     20027     20028
     20023     20026     20027     20029     20024     20023     20026     20027
     20025     20023     20026     20027     20026     20027     20029     20030
     20026     20027     20029     20031     20026     20027     20029     20079
     20027     20029     20079     20080     20027     20029     20079     20081
     20027     20029     20079     20082     20028     20027     20029     20030
     20028     20027     20029     20031     20028     20027     20029     20079
     20029     20079     20082     20083     20029     20079     20082     20084
     20029     20079     20082     20085     20030     20029     20079     20080
     20030     20029     20079     20081     20030     20029     20079     20082
     20031     20029     20079     20080     20031     20029     20079     20081
     20031     20029     20079     20082     20032     20035     20038     20039
     20032     20035     20038     20040     20033     20032     20035     20036
     20033     20032     20035     20037     20033     20032     20035     20038
     20034     20032     20035     20036     20034     20032     20035     20037
     20034     20032     20035     20038     20035     20038     20040     20041
     20035     20038     20040     20042     20036     20035     20038     20039
     20036     20035     20038     20040     20037     20035     20038     20039
     20037     20035     20038     20040     20038     20040     20042     20043
     20038     20040     20042     20044     20038     20040     20042     20045
     20039     20038     20040     20041     20039     20038     20040     20042
     20040     20042     20045     20046     20040     20042     20045     20047
     20041     20040     20042     20043     20041     20040     20042     20044
     20041     20040     20042     20045     20042     20045     20047     20048
     20042     20045     20047     20049     20043     20042     20045     20046
     20043     20042     20045     20047     20044     20042     20045     20046
     20044     20042     20045     20047     20045     20047     20049     20050
     20045     20047     20049     20051     20045     20047     20049     20052
     20046     20045     20047     20048     20046     20045     20047     20049
     20047     20049     20052     20053     20047     20049     20052     20054
     20048     20047     20049     20050     20048     20047     20049     20051
     20048     20047     20049     20052     20049     20052     20054     20055
     20049     20052     20054     20056     20050     20049     20052     20053
     20050     20049     20052     20054     20051     20049     20052     20053
     20051     20049     20052     20054     20052     20054     20056     20057
     20052     20054     20056     20058     20052     20054     20056     20059
     20053     20052     20054     20055     20053     20052     20054     20056
     20054     20056     20059     20060     20054     20056     20059     20061
     20055     20054     20056     20057     20055     20054     20056     20058
     20055     20054     20056     20059     20056     20059     20061     20062
     20056     20059     20061     20063     20057     20056     20059     20060
     20057     20056     20059     20061     20058     20056     20059     20060
     20058     20056     20059     20061     20059     20061     20063     20064
     20059     20061     20063     20065     20059     20061     20063     20066
     20060     20059     20061     20062     20060     20059     20061     20063
     20061     20063     20066     20067     20061     20063     20066     20068
     20061     20063     20066     20069     20062     20061     20063     20064
     20062     20061     20063     20065     20062     20061     20063     20066
     20063     20066     20069     20070     20063     20066     20069     20071
     20063     20066     20069     20072     20064     20063     20066     20067
     20064     20063     20066     20068     20064     20063     20066     20069
     20065     20063     20066     20067     20065     20063     20066     20068
     20065     20063     20066     20069     20066     20069     20072     20073
     20066     20069     20072     20074     20066     20069     20072     20075
     20067     20066     20069     20070     20067     20066     20069     20071
     20067     20066     20069     20072     20068     20066     20069     20070
     20068     20066     20069     20071     20068     20066     20069     20072
     20069     20072     20075     20076     20069     20072     20075     20077
     20069     20072     20075     20078     20070     20069     20072     20073
     20070     20069     20072     20074     20070     20069     20072     20075
     20071     20069     20072     20073     20071     20069     20072     20074
     20071     20069     20072     20075     20073     20072     20075     20076
     20073     20072     20075     20077     20073     20072     20075     20078
     20074     20072     20075     20076     20074     20072     20075     20077
     20074     20072     20075     20078     20079     20082     20085     20086
     20079     20082     20085     20087     20079     20082     20085     20088
     20080     20079     20082     20083     20080     20079     20082     20084
     20080     20079     20082     20085     20081     20079     20082     20083
     20081     20079     20082     20084     20081     20079     20082     20085
     20082     20085     20088     20089     20082     20085     20088     20090
     20082     20085     20088     20091     20083     20082     20085     20086
     20083     20082     20085     20087     20083     20082     20085     20088
     20084     20082     20085     20086     20084     20082     20085     20087
     20084     20082     20085     20088     20085     20088     20091     20092
     20085     20088     20091     20093     20085     20088     20091     20094
     20086     20085     20088     20089     20086     20085     20088     20090
     20086     20085     20088     20091     20087     20085     20088     20089
     20087     20085     20088     20090     20087     20085     20088     20091
     20088     20091     20094     20095     20088     20091     20094     20096
     20088     20091     20094     20097     20089     20088     20091     20092
     20089     20088     20091     20093     20089     20088     20091     20094
     20090     20088     20091     20092     20090     20088     20091     20093
     20090     20088     20091     20094     20091     20094     20097     20098
     20091     20094     20097     20099     20091     20094     20097     20100
     20092     20091     20094     20095     20092     20091     20094     20096
     20092     20091     20094     20097     20093     20091     20094     20095
     20093     20091     20094     20096     20093     20091     20094     20097
     20094     20097     20100     20101     20094     20097     20100     20102
     20094     20097     20100     20103     20095     20094     20097     20098
     20095     20094     20097     20099     20095     20094     20097     20100
     20096     20094     20097     20098     20096     20094     20097     20099
     20096     20094     20097     20100     20097     20100     20103     20104
     20097     20100     20103     20105     20097     20100     20103     20106
     20098     20097     20100     20101     20098     20097     20100     20102
     20098     20097     20100     20103     20099     20097     20100     20101
     20099     20097     20100     20102     20099     20097     20100     20103
     20100     20103     20106     20107     20100     20103     20106     20108
     20100     20103     20106     20109     20101     20100     20103     20104
     20101     20100     20103     20105     20101     20100     20103     20106
     20102     20100     20103     20104     20102     20100     20103     20105
     20102     20100     20103     20106     20103     20106     20109     20110
     20103     20106     20109     20111     20103     20106     20109     20112
     20104     20103     20106     20107     20104     20103     20106     20108
     20104     20103     20106     20109     20105     20103     20106     20107
     20105     20103     20106     20108     20105     20103     20106     20109
     20106     20109     20112     20113     20106     20109     20112     20114
     20106     20109     20112     20115     20107     20106     20109     20110
     20107     20106     20109     20111     20107     20106     20109     20112
     20108     20106     20109     20110     20108     20106     20109     20111
     20108     20106     20109     20112     20109     20112     20115     20116
     20109     20112     20115     20117     20109     20112     20115     20118
     20110     20109     20112     20113     20110     20109     20112     20114
     20110     20109     20112     20115     20111     20109     20112     20113
     20111     20109     20112     20114     20111     20109     20112     20115
     20112     20115     20118     20119     20112     20115     20118     20120
     20112     20115     20118     20121     20113     20112     20115     20116
     20113     20112     20115     20117     20113     20112     20115     20118
     20114     20112     20115     20116     20114     20112     20115     20117
     20114     20112     20115     20118     20115     20118     20121     20122
     20115     20118     20121     20123     20115     20118     20121     20124
     20116     20115     20118     20119     20116     20115     20118     20120
     20116     20115     20118     20121     20117     20115     20118     20119
     20117     20115     20118     20120     20117     20115     20118     20121
     20118     20121     20124     20125     20118     20121     20124     20126
     20118     20121     20124     20127     20119     20118     20121     20122
     20119     20118     20121     20123     20119     20118     20121     20124
     20120     20118     20121     20122     20120     20118     20121     20123
     20120     20118     20121     20124     20122     20121     20124     20125
     20122     20121     20124     20126     20122     20121     20124     20127
     20123     20121     20124     20125     20123     20121     20124     20126
     20123     20121     20124     20127     20128     20132     20134     20135
     20128     20132     20134     20136     20128     20132     20137     20138
     20128     20132     20137     20139     20128     20132     20137     20143
     20129     20128     20132     20133     20129     20128     20132     20134
     20129     20128     20132     20137     20130     20128     20132     20133
     20130     20128     20132     20134     20130     20128     20132     20137
     20131     20128     20132     20133     20131     20128     20132     20134
     20131     20128     20132     20137     20132     20137     20143     20140
     20133     20132     20134     20135     20133     20132     20134     20136
     20133     20132     20137     20138     20133     20132     20137     20139
     20133     20132     20137     20143     20134     20132     20137     20138
     20134     20132     20137     20139     20134     20132     20137     20143
     20135     20134     20132     20137     20136     20134     20132     20137
     20137     20143     20140     20141     20137     20143     20140     20142
     20137     20143     20140     20144     20138     20137     20143     20140
     20139     20137     20143     20140     20140     20144     20145     20146
     20140     20144     20145     20147     20140     20144     20145     20148
     20141     20140     20144     20145     20142     20140     20144     20145
     20143     20140     20144     20145     20144     20145     20148     20149
     20144     20145     20148     20150     20144     20145     20148     20156
     20145     20148     20150     20151     20145     20148     20156     20157
     20145     20148     20156     20158     20145     20148     20156     20159
     20146     20145     20148     20149     20146     20145     20148     20150
     20146     20145     20148     20156     20147     20145     20148     20149
     20147     20145     20148     20150     20147     20145     20148     20156
     20148     20150     20151     20152     20148     20150     20151     20153
     20148     20156     20159     20160     20149     20148     20150     20151
     20149     20148     20156     20157     20149     20148     20156     20158
     20149     20148     20156     20159     20150     20148     20156     20157
     20150     20148     20156     20158     20150     20148     20156     20159
     20150     20151     20153     20154     20150     20151     20153     20155
     20150     20151     20153     20165     20151     20150     20148     20156
     20151     20153     20165     20166     20151     20153     20165     20167
     20151     20153     20165     20168     20152     20151     20153     20154
     20152     20151     20153     20155     20152     20151     20153     20165
     20153     20165     20168     20169     20153     20165     20168     20170
     20153     20165     20168     20171     20154     20153     20165     20166
     20154     20153     20165     20167     20154     20153     20165     20168
     20155     20153     20165     20166     20155     20153     20165     20167
     20155     20153     20165     20168     20156     20159     20160     20161
     20156     20159     20160     20162     20157     20156     20159     20160
     20158     20156     20159     20160     20159     20160     20162     20163
     20159     20160     20162     20164     20159     20160     20162     20212
     20160     20162     20212     20213     20160     20162     20212     20214
     20160     20162     20212     20215     20161     20160     20162     20163
     20161     20160     20162     20164     20161     20160     20162     20212
     20162     20212     20215     20216     20162     20212     20215     20217
     20162     20212     20215     20218     20163     20162     20212     20213
     20163     20162     20212     20214     20163     20162     20212     20215
     20164     20162     20212     20213     20164     20162     20212     20214
     20164     20162     20212     20215     20165     20168     20171     20172
     20165     20168     20171     20173     20166     20165     20168     20169
     20166     20165     20168     20170     20166     20165     20168     20171
     20167     20165     20168     20169     20167     20165     20168     20170
     20167     20165     20168     20171     20168     20171     20173     20174
     20168     20171     20173     20175     20169     20168     20171     20172
     20169     20168     20171     20173     20170     20168     20171     20172
     20170     20168     20171     20173     20171     20173     20175     20176
     20171     20173     20175     20177     20171     20173     20175     20178
     20172     20171     20173     20174     20172     20171     20173     20175
     20173     20175     20178     20179     20173     20175     20178     20180
     20174     20173     20175     20176     20174     20173     20175     20177
     20174     20173     20175     20178     20175     20178     20180     20181
     20175     20178     20180     20182     20176     20175     20178     20179
     20176     20175     20178     20180     20177     20175     20178     20179
     20177     20175     20178     20180     20178     20180     20182     20183
     20178     20180     20182     20184     20178     20180     20182     20185
     20179     20178     20180     20181     20179     20178     20180     20182
     20180     20182     20185     20186     20180     20182     20185     20187
     20181     20180     20182     20183     20181     20180     20182     20184
     20181     20180     20182     20185     20182     20185     20187     20188
     20182     20185     20187     20189     20183     20182     20185     20186
     20183     20182     20185     20187     20184     20182     20185     20186
     20184     20182     20185     20187     20185     20187     20189     20190
     20185     20187     20189     20191     20185     20187     20189     20192
     20186     20185     20187     20188     20186     20185     20187     20189
     20187     20189     20192     20193     20187     20189     20192     20194
     20188     20187     20189     20190     20188     20187     20189     20191
     20188     20187     20189     20192     20189     20192     20194     20195
     20189     20192     20194     20196     20190     20189     20192     20193
     20190     20189     20192     20194     20191     20189     20192     20193
     20191     20189     20192     20194     20192     20194     20196     20197
     20192     20194     20196     20198     20192     20194     20196     20199
     20193     20192     20194     20195     20193     20192     20194     20196
     20194     20196     20199     20200     20194     20196     20199     20201
     20194     20196     20199     20202     20195     20194     20196     20197
     20195     20194     20196     20198     20195     20194     20196     20199
     20196     20199     20202     20203     20196     20199     20202     20204
     20196     20199     20202     20205     20197     20196     20199     20200
     20197     20196     20199     20201     20197     20196     20199     20202
     20198     20196     20199     20200     20198     20196     20199     20201
     20198     20196     20199     20202     20199     20202     20205     20206
     20199     20202     20205     20207     20199     20202     20205     20208
     20200     20199     20202     20203     20200     20199     20202     20204
     20200     20199     20202     20205     20201     20199     20202     20203
     20201     20199     20202     20204     20201     20199     20202     20205
     20202     20205     20208     20209     20202     20205     20208     20210
     20202     20205     20208     20211     20203     20202     20205     20206
     20203     20202     20205     20207     20203     20202     20205     20208
     20204     20202     20205     20206     20204     20202     20205     20207
     20204     20202     20205     20208     20206     20205     20208     20209
     20206     20205     20208     20210     20206     20205     20208     20211
     20207     20205     20208     20209     20207     20205     20208     20210
     20207     20205     20208     20211     20212     20215     20218     20219
     20212     20215     20218     20220     20212     20215     20218     20221
     20213     20212     20215     20216     20213     20212     20215     20217
     20213     20212     20215     20218     20214     20212     20215     20216
     20214     20212     20215     20217     20214     20212     20215     20218
     20215     20218     20221     20222     20215     20218     20221     20223
     20215     20218     20221     20224     20216     20215     20218     20219
     20216     20215     20218     20220     20216     20215     20218     20221
     20217     20215     20218     20219     20217     20215     20218     20220
     20217     20215     20218     20221     20218     20221     20224     20225
     20218     20221     20224     20226     20218     20221     20224     20227
     20219     20218     20221     20222     20219     20218     20221     20223
     20219     20218     20221     20224     20220     20218     20221     20222
     20220     20218     20221     20223     20220     20218     20221     20224
     20221     20224     20227     20228     20221     20224     20227     20229
     20221     20224     20227     20230     20222     20221     20224     20225
     20222     20221     20224     20226     20222     20221     20224     20227
     20223     20221     20224     20225     20223     20221     20224     20226
     20223     20221     20224     20227     20224     20227     20230     20231
     20224     20227     20230     20232     20224     20227     20230     20233
     20225     20224     20227     20228     20225     20224     20227     20229
     20225     20224     20227     20230     20226     20224     20227     20228
     20226     20224     20227     20229     20226     20224     20227     20230
     20227     20230     20233     20234     20227     20230     20233     20235
     20227     20230     20233     20236     20228     20227     20230     20231
     20228     20227     20230     20232     20228     20227     20230     20233
     20229     20227     20230     20231     20229     20227     20230     20232
     20229     20227     20230     20233     20230     20233     20236     20237
     20230     20233     20236     20238     20230     20233     20236     20239
     20231     20230     20233     20234     20231     20230     20233     20235
     20231     20230     20233     20236     20232     20230     20233     20234
     20232     20230     20233     20235     20232     20230     20233     20236
     20233     20236     20239     20240     20233     20236     20239     20241
     20233     20236     20239     20242     20234     20233     20236     20237
     20234     20233     20236     20238     20234     20233     20236     20239
     20235     20233     20236     20237     20235     20233     20236     20238
     20235     20233     20236     20239     20236     20239     20242     20243
     20236     20239     20242     20244     20236     20239     20242     20245
     20237     20236     20239     20240     20237     20236     20239     20241
     20237     20236     20239     20242     20238     20236     20239     20240
     20238     20236     20239     20241     20238     20236     20239     20242
     20239     20242     20245     20246     20239     20242     20245     20247
     20239     20242     20245     20248     20240     20239     20242     20243
     20240     20239     20242     20244     20240     20239     20242     20245
     20241     20239     20242     20243     20241     20239     20242     20244
     20241     20239     20242     20245     20242     20245     20248     20249
     20242     20245     20248     20250     20242     20245     20248     20251
     20243     20242     20245     20246     20243     20242     20245     20247
     20243     20242     20245     20248     20244     20242     20245     20246
     20244     20242     20245     20247     20244     20242     20245     20248
     20245     20248     20251     20252     20245     20248     20251     20253
     20245     20248     20251     20254     20246     20245     20248     20249
     20246     20245     20248     20250     20246     20245     20248     20251
     20247     20245     20248     20249     20247     20245     20248     20250
     20247     20245     20248     20251     20248     20251     20254     20255
     20248     20251     20254     20256     20248     20251     20254     20257
     20249     20248     20251     20252     20249     20248     20251     20253
     20249     20248     20251     20254     20250     20248     20251     20252
     20250     20248     20251     20253     20250     20248     20251     20254
     20251     20254     20257     20258     20251     20254     20257     20259
     20251     20254     20257     20260     20252     20251     20254     20255
     20252     20251     20254     20256     20252     20251     20254     20257
     20253     20251     20254     20255     20253     20251     20254     20256
     20253     20251     20254     20257     20255     20254     20257     20258
     20255     20254     20257     20259     20255     20254     20257     20260
     20256     20254     20257     20258     20256     20254     20257     20259
     20256     20254     20257     20260     20261     20274     20277     20278
     20261     20274     20277     20279     20261     20274     20277     20284
     20262     20261     20266     20267     20262     20261     20266     20268
     20262     20261     20266     20269     20262     20261     20270     20271
     20262     20261     20270     20272     20262     20261     20270     20273
     20262     20261     20274     20275     20262     20261     20274     20276
     20262     20261     20274     20277     20263     20262     20261     20266
     20263     20262     20261     20270     20263     20262     20261     20274
     20264     20262     20261     20266     20264     20262     20261     20270
     20264     20262     20261     20274     20265     20262     20261     20266
     20265     20262     20261     20270     20265     20262     20261     20274
     20266     20261     20270     20271     20266     20261     20270     20272
     20266     20261     20270     20273     20266     20261     20274     20275
     20266     20261     20274     20276     20266     20261     20274     20277
     20267     20266     20261     20270     20267     20266     20261     20274
     20268     20266     20261     20270     20268     20266     20261     20274
     20269     20266     20261     20270     20269     20266     20261     20274
     20270     20261     20274     20275     20270     20261     20274     20276
     20270     20261     20274     20277     20271     20270     20261     20274
     20272     20270     20261     20274     20273     20270     20261     20274
     20274     20277     20284     20280     20275     20274     20277     20278
     20275     20274     20277     20279     20275     20274     20277     20284
     20276     20274     20277     20278     20276     20274     20277     20279
     20276     20274     20277     20284     20277     20284     20280     20281
     20277     20284     20280     20282     20277     20284     20280     20283
     20278     20277     20284     20280     20279     20277     20284     20280
     20280     20283     20285     20286     20280     20283     20285     20287
     20280     20283     20285     20290     20281     20280     20283     20285
     20282     20280     20283     20285     20283     20285     20290     20288
     20283     20285     20290     20291     20283     20285     20290     20292
     20284     20280     20283     20285     20285     20290     20288     20289
     20285     20290     20288     20340     20285     20290     20292     20293
     20285     20290     20292     20294     20285     20290     20292     20296
     20286     20285     20290     20288     20286     20285     20290     20291
     20286     20285     20290     20292     20287     20285     20290     20288
     20287     20285     20290     20291     20287     20285     20290     20292
     20288     20290     20292     20293     20288     20290     20292     20294
     20288     20290     20292     20296     20288     20340     20342     20343
     20288     20340     20342     20344     20288     20340     20342     20345
     20289     20288     20290     20291     20289     20288     20290     20292
     20289     20288     20340     20341     20289     20288     20340     20342
     20290     20288     20340     20341     20290     20288     20340     20342
     20290     20292     20294     20295     20290     20292     20296     20297
     20290     20292     20296     20298     20291     20290     20288     20340
     20291     20290     20292     20293     20291     20290     20292     20294
     20291     20290     20292     20296     20292     20290     20288     20340
     20292     20296     20298     20299     20292     20296     20298     20300
     20293     20292     20294     20295     20293     20292     20296     20297
     20293     20292     20296     20298     20294     20292     20296     20297
     20294     20292     20296     20298     20295     20294     20292     20296
     20296     20298     20300     20301     20296     20298     20300     20302
     20296     20298     20300     20303     20297     20296     20298     20299
     20297     20296     20298     20300     20298     20300     20303     20304
     20298     20300     20303     20305     20298     20300     20303     20306
     20299     20298     20300     20301     20299     20298     20300     20302
     20299     20298     20300     20303     20300     20303     20306     20307
     20300     20303     20306     20308     20300     20303     20306     20309
     20301     20300     20303     20304     20301     20300     20303     20305
     20301     20300     20303     20306     20302     20300     20303     20304
     20302     20300     20303     20305     20302     20300     20303     20306
     20303     20306     20309     20310     20303     20306     20309     20311
     20303     20306     20309     20312     20304     20303     20306     20307
     20304     20303     20306     20308     20304     20303     20306     20309
     20305     20303     20306     20307     20305     20303     20306     20308
     20305     20303     20306     20309     20306     20309     20312     20313
     20306     20309     20312     20314     20306     20309     20312     20315
     20307     20306     20309     20310     20307     20306     20309     20311
     20307     20306     20309     20312     20308     20306     20309     20310
     20308     20306     20309     20311     20308     20306     20309     20312
     20309     20312     20315     20316     20309     20312     20315     20317
     20309     20312     20315     20318     20310     20309     20312     20313
     20310     20309     20312     20314     20310     20309     20312     20315
     20311     20309     20312     20313     20311     20309     20312     20314
     20311     20309     20312     20315     20312     20315     20318     20319
     20312     20315     20318     20320     20312     20315     20318     20321
     20313     20312     20315     20316     20313     20312     20315     20317
     20313     20312     20315     20318     20314     20312     20315     20316
     20314     20312     20315     20317     20314     20312     20315     20318
     20315     20318     20321     20322     20315     20318     20321     20323
     20315     20318     20321     20324     20316     20315     20318     20319
     20316     20315     20318     20320     20316     20315     20318     20321
     20317     20315     20318     20319     20317     20315     20318     20320
     20317     20315     20318     20321     20318     20321     20324     20325
     20318     20321     20324     20326     20318     20321     20324     20327
     20319     20318     20321     20322     20319     20318     20321     20323
     20319     20318     20321     20324     20320     20318     20321     20322
     20320     20318     20321     20323     20320     20318     20321     20324
     20321     20324     20327     20328     20321     20324     20327     20329
     20321     20324     20327     20330     20322     20321     20324     20325
     20322     20321     20324     20326     20322     20321     20324     20327
     20323     20321     20324     20325     20323     20321     20324     20326
     20323     20321     20324     20327     20324     20327     20330     20331
     20324     20327     20330     20332     20324     20327     20330     20333
     20325     20324     20327     20328     20325     20324     20327     20329
     20325     20324     20327     20330     20326     20324     20327     20328
     20326     20324     20327     20329     20326     20324     20327     20330
     20327     20330     20333     20334     20327     20330     20333     20335
     20327     20330     20333     20336     20328     20327     20330     20331
     20328     20327     20330     20332     20328     20327     20330     20333
     20329     20327     20330     20331     20329     20327     20330     20332
     20329     20327     20330     20333     20330     20333     20336     20337
     20330     20333     20336     20338     20330     20333     20336     20339
     20331     20330     20333     20334     20331     20330     20333     20335
     20331     20330     20333     20336     20332     20330     20333     20334
     20332     20330     20333     20335     20332     20330     20333     20336
     20334     20333     20336     20337     20334     20333     20336     20338
     20334     20333     20336     20339     20335     20333     20336     20337
     20335     20333     20336     20338     20335     20333     20336     20339
     20340     20342     20345     20346     20340     20342     20345     20347
     20340     20342     20345     20348     20341     20340     20342     20343
     20341     20340     20342     20344     20341     20340     20342     20345
     20342     20345     20348     20349     20342     20345     20348     20350
     20342     20345     20348     20351     20343     20342     20345     20346
     20343     20342     20345     20347     20343     20342     20345     20348
     20344     20342     20345     20346     20344     20342     20345     20347
     20344     20342     20345     20348     20345     20348     20351     20352
     20345     20348     20351     20353     20345     20348     20351     20354
     20346     20345     20348     20349     20346     20345     20348     20350
     20346     20345     20348     20351     20347     20345     20348     20349
     20347     20345     20348     20350     20347     20345     20348     20351
     20348     20351     20354     20355     20348     20351     20354     20356
     20348     20351     20354     20357     20349     20348     20351     20352
     20349     20348     20351     20353     20349     20348     20351     20354
     20350     20348     20351     20352     20350     20348     20351     20353
     20350     20348     20351     20354     20351     20354     20357     20358
     20351     20354     20357     20359     20351     20354     20357     20360
     20352     20351     20354     20355     20352     20351     20354     20356
     20352     20351     20354     20357     20353     20351     20354     20355
     20353     20351     20354     20356     20353     20351     20354     20357
     20354     20357     20360     20361     20354     20357     20360     20362
     20354     20357     20360     20363     20355     20354     20357     20358
     20355     20354     20357     20359     20355     20354     20357     20360
     20356     20354     20357     20358     20356     20354     20357     20359
     20356     20354     20357     20360     20357     20360     20363     20364
     20357     20360     20363     20365     20358     20357     20360     20361
     20358     20357     20360     20362     20358     20357     20360     20363
     20359     20357     20360     20361     20359     20357     20360     20362
     20359     20357     20360     20363     20360     20363     20365     20366
     20360     20363     20365     20367     20361     20360     20363     20364
     20361     20360     20363     20365     20362     20360     20363     20364
     20362     20360     20363     20365     20363     20365     20367     20368
     20363     20365     20367     20369     20363     20365     20367     20370
     20364     20363     20365     20366     20364     20363     20365     20367
     20365     20367     20370     20371     20365     20367     20370     20372
     20365     20367     20370     20373     20366     20365     20367     20368
     20366     20365     20367     20369     20366     20365     20367     20370
     20367     20370     20373     20374     20367     20370     20373     20375
     20367     20370     20373     20376     20368     20367     20370     20371
     20368     20367     20370     20372     20368     20367     20370     20373
     20369     20367     20370     20371     20369     20367     20370     20372
     20369     20367     20370     20373     20370     20373     20376     20377
     20370     20373     20376     20378     20370     20373     20376     20379
     20371     20370     20373     20374     20371     20370     20373     20375
     20371     20370     20373     20376     20372     20370     20373     20374
     20372     20370     20373     20375     20372     20370     20373     20376
     20373     20376     20379     20380     20373     20376     20379     20381
     20373     20376     20379     20382     20374     20373     20376     20377
     20374     20373     20376     20378     20374     20373     20376     20379
     20375     20373     20376     20377     20375     20373     20376     20378
     20375     20373     20376     20379     20376     20379     20382     20383
     20376     20379     20382     20384     20376     20379     20382     20385
     20377     20376     20379     20380     20377     20376     20379     20381
     20377     20376     20379     20382     20378     20376     20379     20380
     20378     20376     20379     20381     20378     20376     20379     20382
     20379     20382     20385     20386     20379     20382     20385     20387
     20379     20382     20385     20388     20380     20379     20382     20383
     20380     20379     20382     20384     20380     20379     20382     20385
     20381     20379     20382     20383     20381     20379     20382     20384
     20381     20379     20382     20385     20382     20385     20388     20389
     20382     20385     20388     20390     20382     20385     20388     20391
     20383     20382     20385     20386     20383     20382     20385     20387
     20383     20382     20385     20388     20384     20382     20385     20386
     20384     20382     20385     20387     20384     20382     20385     20388
     20386     20385     20388     20389     20386     20385     20388     20390
     20386     20385     20388     20391     20387     20385     20388     20389
     20387     20385     20388     20390     20387     20385     20388     20391
     20392     20405     20408     20409     20392     20405     20408     20410
     20392     20405     20408     20414     20393     20392     20397     20398
     20393     20392     20397     20399     20393     20392     20397     20400
     20393     20392     20401     20402     20393     20392     20401     20403
     20393     20392     20401     20404     20393     20392     20405     20406
     20393     20392     20405     20407     20393     20392     20405     20408
     20394     20393     20392     20397     20394     20393     20392     20401
     20394     20393     20392     20405     20395     20393     20392     20397
     20395     20393     20392     20401     20395     20393     20392     20405
     20396     20393     20392     20397     20396     20393     20392     20401
     20396     20393     20392     20405     20397     20392     20401     20402
     20397     20392     20401     20403     20397     20392     20401     20404
     20397     20392     20405     20406     20397     20392     20405     20407
     20397     20392     20405     20408     20398     20397     20392     20401
     20398     20397     20392     20405     20399     20397     20392     20401
     20399     20397     20392     20405     20400     20397     20392     20401
     20400     20397     20392     20405     20401     20392     20405     20406
     20401     20392     20405     20407     20401     20392     20405     20408
     20402     20401     20392     20405     20403     20401     20392     20405
     20404     20401     20392     20405     20405     20408     20414     20411
     20406     20405     20408     20409     20406     20405     20408     20410
     20406     20405     20408     20414     20407     20405     20408     20409
     20407     20405     20408     20410     20407     20405     20408     20414
     20408     20414     20411     20412     20408     20414     20411     20413
     20408     20414     20411     20415     20409     20408     20414     20411
     20410     20408     20414     20411     20411     20415     20416     20417
     20411     20415     20416     20418     20411     20415     20416     20419
     20412     20411     20415     20416     20413     20411     20415     20416
     20414     20411     20415     20416     20415     20416     20419     20420
     20415     20416     20419     20421     20415     20416     20419     20427
     20416     20419     20421     20422     20416     20419     20427     20428
     20416     20419     20427     20429     20416     20419     20427     20430
     20417     20416     20419     20420     20417     20416     20419     20421
     20417     20416     20419     20427     20418     20416     20419     20420
     20418     20416     20419     20421     20418     20416     20419     20427
     20419     20421     20422     20423     20419     20421     20422     20424
     20419     20427     20430     20431     20420     20419     20421     20422
     20420     20419     20427     20428     20420     20419     20427     20429
     20420     20419     20427     20430     20421     20419     20427     20428
     20421     20419     20427     20429     20421     20419     20427     20430
     20421     20422     20424     20425     20421     20422     20424     20426
     20421     20422     20424     20436     20422     20421     20419     20427
     20422     20424     20436     20437     20422     20424     20436     20438
     20422     20424     20436     20439     20423     20422     20424     20425
     20423     20422     20424     20426     20423     20422     20424     20436
     20424     20436     20439     20440     20424     20436     20439     20441
     20424     20436     20439     20442     20425     20424     20436     20437
     20425     20424     20436     20438     20425     20424     20436     20439
     20426     20424     20436     20437     20426     20424     20436     20438
     20426     20424     20436     20439     20427     20430     20431     20432
     20427     20430     20431     20433     20428     20427     20430     20431
     20429     20427     20430     20431     20430     20431     20433     20434
     20430     20431     20433     20435     20430     20431     20433     20481
     20431     20433     20481     20482     20431     20433     20481     20483
     20431     20433     20481     20484     20432     20431     20433     20434
     20432     20431     20433     20435     20432     20431     20433     20481
     20433     20481     20484     20485     20433     20481     20484     20486
     20433     20481     20484     20487     20434     20433     20481     20482
     20434     20433     20481     20483     20434     20433     20481     20484
     20435     20433     20481     20482     20435     20433     20481     20483
     20435     20433     20481     20484     20436     20439     20442     20443
     20436     20439     20442     20444     20436     20439     20442     20445
     20437     20436     20439     20440     20437     20436     20439     20441
     20437     20436     20439     20442     20438     20436     20439     20440
     20438     20436     20439     20441     20438     20436     20439     20442
     20439     20442     20445     20446     20439     20442     20445     20447
     20439     20442     20445     20448     20440     20439     20442     20443
     20440     20439     20442     20444     20440     20439     20442     20445
     20441     20439     20442     20443     20441     20439     20442     20444
     20441     20439     20442     20445     20442     20445     20448     20449
     20442     20445     20448     20450     20442     20445     20448     20451
     20443     20442     20445     20446     20443     20442     20445     20447
     20443     20442     20445     20448     20444     20442     20445     20446
     20444     20442     20445     20447     20444     20442     20445     20448
     20445     20448     20451     20452     20445     20448     20451     20453
     20445     20448     20451     20454     20446     20445     20448     20449
     20446     20445     20448     20450     20446     20445     20448     20451
     20447     20445     20448     20449     20447     20445     20448     20450
     20447     20445     20448     20451     20448     20451     20454     20455
     20448     20451     20454     20456     20449     20448     20451     20452
     20449     20448     20451     20453     20449     20448     20451     20454
     20450     20448     20451     20452     20450     20448     20451     20453
     20450     20448     20451     20454     20451     20454     20456     20457
     20451     20454     20456     20458     20452     20451     20454     20455
     20452     20451     20454     20456     20453     20451     20454     20455
     20453     20451     20454     20456     20454     20456     20458     20459
     20454     20456     20458     20460     20454     20456     20458     20461
     20455     20454     20456     20457     20455     20454     20456     20458
     20456     20458     20461     20462     20456     20458     20461     20463
     20457     20456     20458     20459     20457     20456     20458     20460
     20457     20456     20458     20461     20458     20461     20463     20464
     20458     20461     20463     20465     20459     20458     20461     20462
     20459     20458     20461     20463     20460     20458     20461     20462
     20460     20458     20461     20463     20461     20463     20465     20466
     20461     20463     20465     20467     20461     20463     20465     20468
     20462     20461     20463     20464     20462     20461     20463     20465
     20463     20465     20468     20469     20463     20465     20468     20470
     20463     20465     20468     20471     20464     20463     20465     20466
     20464     20463     20465     20467     20464     20463     20465     20468
     20465     20468     20471     20472     20465     20468     20471     20473
     20465     20468     20471     20474     20466     20465     20468     20469
     20466     20465     20468     20470     20466     20465     20468     20471
     20467     20465     20468     20469     20467     20465     20468     20470
     20467     20465     20468     20471     20468     20471     20474     20475
     20468     20471     20474     20476     20468     20471     20474     20477
     20469     20468     20471     20472     20469     20468     20471     20473
     20469     20468     20471     20474     20470     20468     20471     20472
     20470     20468     20471     20473     20470     20468     20471     20474
     20471     20474     20477     20478     20471     20474     20477     20479
     20471     20474     20477     20480     20472     20471     20474     20475
     20472     20471     20474     20476     20472     20471     20474     20477
     20473     20471     20474     20475     20473     20471     20474     20476
     20473     20471     20474     20477     20475     20474     20477     20478
     20475     20474     20477     20479     20475     20474     20477     20480
     20476     20474     20477     20478     20476     20474     20477     20479
     20476     20474     20477     20480     20481     20484     20487     20488
     20481     20484     20487     20489     20481     20484     20487     20490
     20482     20481     20484     20485     20482     20481     20484     20486
     20482     20481     20484     20487     20483     20481     20484     20485
     20483     20481     20484     20486     20483     20481     20484     20487
     20484     20487     20490     20491     20484     20487     20490     20492
     20484     20487     20490     20493     20485     20484     20487     20488
     20485     20484     20487     20489     20485     20484     20487     20490
     20486     20484     20487     20488     20486     20484     20487     20489
     20486     20484     20487     20490     20487     20490     20493     20494
     20487     20490     20493     20495     20487     20490     20493     20496
     20488     20487     20490     20491     20488     20487     20490     20492
     20488     20487     20490     20493     20489     20487     20490     20491
     20489     20487     20490     20492     20489     20487     20490     20493
     20490     20493     20496     20497     20490     20493     20496     20498
     20490     20493     20496     20499     20491     20490     20493     20494
     20491     20490     20493     20495     20491     20490     20493     20496
     20492     20490     20493     20494     20492     20490     20493     20495
     20492     20490     20493     20496     20493     20496     20499     20500
     20493     20496     20499     20501     20493     20496     20499     20502
     20494     20493     20496     20497     20494     20493     20496     20498
     20494     20493     20496     20499     20495     20493     20496     20497
     20495     20493     20496     20498     20495     20493     20496     20499
     20496     20499     20502     20503     20496     20499     20502     20504
     20496     20499     20502     20505     20497     20496     20499     20500
     20497     20496     20499     20501     20497     20496     20499     20502
     20498     20496     20499     20500     20498     20496     20499     20501
     20498     20496     20499     20502     20499     20502     20505     20506
     20499     20502     20505     20507     20499     20502     20505     20508
     20500     20499     20502     20503     20500     20499     20502     20504
     20500     20499     20502     20505     20501     20499     20502     20503
     20501     20499     20502     20504     20501     20499     20502     20505
     20502     20505     20508     20509     20502     20505     20508     20510
     20502     20505     20508     20511     20503     20502     20505     20506
     20503     20502     20505     20507     20503     20502     20505     20508
     20504     20502     20505     20506     20504     20502     20505     20507
     20504     20502     20505     20508     20505     20508     20511     20512
     20505     20508     20511     20513     20505     20508     20511     20514
     20506     20505     20508     20509     20506     20505     20508     20510
     20506     20505     20508     20511     20507     20505     20508     20509
     20507     20505     20508     20510     20507     20505     20508     20511
     20508     20511     20514     20515     20508     20511     20514     20516
     20508     20511     20514     20517     20509     20508     20511     20512
     20509     20508     20511     20513     20509     20508     20511     20514
     20510     20508     20511     20512     20510     20508     20511     20513
     20510     20508     20511     20514     20511     20514     20517     20518
     20511     20514     20517     20519     20511     20514     20517     20520
     20512     20511     20514     20515     20512     20511     20514     20516
     20512     20511     20514     20517     20513     20511     20514     20515
     20513     20511     20514     20516     20513     20511     20514     20517
     20514     20517     20520     20521     20514     20517     20520     20522
     20514     20517     20520     20523     20515     20514     20517     20518
     20515     20514     20517     20519     20515     20514     20517     20520
     20516     20514     20517     20518     20516     20514     20517     20519
     20516     20514     20517     20520     20517     20520     20523     20524
     20517     20520     20523     20525     20517     20520     20523     20526
     20518     20517     20520     20521     20518     20517     20520     20522
     20518     20517     20520     20523     20519     20517     20520     20521
     20519     20517     20520     20522     20519     20517     20520     20523
     20520     20523     20526     20527     20520     20523     20526     20528
     20520     20523     20526     20529     20521     20520     20523     20524
     20521     20520     20523     20525     20521     20520     20523     20526
     20522     20520     20523     20524     20522     20520     20523     20525
     20522     20520     20523     20526     20524     20523     20526     20527
     20524     20523     20526     20528     20524     20523     20526     20529
     20525     20523     20526     20527     20525     20523     20526     20528
     20525     20523     20526     20529     20530     20534     20537     20538
     20530     20534     20537     20568     20530     20576     20573     20568
     20530     20576     20573     20574     20530     20576     20573     20575
     20531     20530     20532     20533     20531     20530     20534     20535
     20531     20530     20534     20536     20531     20530     20534     20537
     20531     20530     20576     20573     20531     20530     20576     20577
     20531     20530     20576     20578     20532     20530     20534     20535
     20532     20530     20534     20536     20532     20530     20534     20537
     20532     20530     20576     20573     20532     20530     20576     20577
     20532     20530     20576     20578     20533     20532     20530     20534
     20533     20532     20530     20576     20534     20530     20576     20573
     20534     20530     20576     20577     20534     20530     20576     20578
     20534     20537     20538     20539     20534     20537     20538     20540
     20534     20537     20568     20566     20534     20537     20568     20569
     20534     20537     20568     20573     20535     20534     20530     20576
     20535     20534     20537     20538     20535     20534     20537     20568
     20536     20534     20530     20576     20536     20534     20537     20538
     20536     20534     20537     20568     20537     20534     20530     20576
     20537     20538     20540     20541     20537     20538     20540     20542
     20537     20538     20540     20543     20537     20568     20566     20543
     20537     20568     20566     20563     20537     20568     20566     20567
     20537     20568     20569     20570     20537     20568     20569     20571
     20537     20568     20569     20572     20537     20568     20573     20574
     20537     20568     20573     20575     20537     20568     20573     20576
     20538     20537     20568     20566     20538     20537     20568     20569
     20538     20537     20568     20573     20538     20540     20543     20544
     20538     20540     20543     20545     20538     20540     20543     20566
     20539     20538     20537     20568     20539     20538     20540     20541
     20539     20538     20540     20542     20539     20538     20540     20543
     20540     20538     20537     20568     20540     20543     20545     20546
     20540     20543     20545     20547     20540     20543     20545     20555
     20540     20543     20566     20563     20540     20543     20566     20567
     20540     20543     20566     20568     20541     20540     20543     20544
     20541     20540     20543     20545     20541     20540     20543     20566
     20542     20540     20543     20544     20542     20540     20543     20545
     20542     20540     20543     20566     20543     20545     20547     20548
     20543     20545     20547     20549     20543     20545     20547     20550
     20543     20545     20555     20553     20543     20545     20555     20556
     20543     20545     20555     20560     20543     20566     20563     20560
     20543     20566     20563     20564     20543     20566     20563     20565
     20543     20566     20568     20569     20543     20566     20568     20573
     20544     20543     20545     20546     20544     20543     20545     20547
     20544     20543     20545     20555     20544     20543     20566     20563
     20544     20543     20566     20567     20544     20543     20566     20568
     20545     20543     20566     20563     20545     20543     20566     20567
     20545     20543     20566     20568     20545     20547     20550     20551
     20545     20547     20550     20552     20545     20547     20550     20553
     20545     20555     20553     20550     20545     20555     20553     20554
     20545     20555     20553     20579     20545     20555     20556     20557
     20545     20555     20556     20558     20545     20555     20556     20559
     20545     20555     20560     20561     20545     20555     20560     20562
     20545     20555     20560     20563     20546     20545     20543     20566
     20546     20545     20547     20548     20546     20545     20547     20549
     20546     20545     20547     20550     20546     20545     20555     20553
     20546     20545     20555     20556     20546     20545     20555     20560
     20547     20545     20543     20566     20547     20545     20555     20553
     20547     20545     20555     20556     20547     20545     20555     20560
     20547     20550     20553     20554     20547     20550     20553     20555
     20547     20550     20553     20579     20548     20547     20545     20555
     20548     20547     20550     20551     20548     20547     20550     20552
     20548     20547     20550     20553     20549     20547     20545     20555
     20549     20547     20550     20551     20549     20547     20550     20552
     20549     20547     20550     20553     20550     20547     20545     20555
     20550     20553     20555     20556     20550     20553     20555     20560
     20550     20553     20579     20580     20550     20553     20579     20581
     20550     20553     20579     20585     20551     20550     20553     20554
     20551     20550     20553     20555     20551     20550     20553     20579
     20552     20550     20553     20554     20552     20550     20553     20555
     20552     20550     20553     20579     20553     20555     20556     20557
     20553     20555     20556     20558     20553     20555     20556     20559
     20553     20555     20560     20561     20553     20555     20560     20562
     20553     20555     20560     20563     20553     20579     20581     20582
     20553     20579     20581     20583     20553     20579     20581     20584
     20553     20579     20585     20586     20553     20579     20585     20587
     20553     20579     20585     20588     20554     20553     20555     20556
     20554     20553     20555     20560     20554     20553     20579     20580
     20554     20553     20579     20581     20554     20553     20579     20585
     20555     20545     20543     20566     20555     20553     20579     20580
     20555     20553     20579     20581     20555     20553     20579     20585
     20555     20560     20563     20564     20555     20560     20563     20565
     20555     20560     20563     20566     20556     20555     20553     20579
     20556     20555     20560     20561     20556     20555     20560     20562
     20556     20555     20560     20563     20557     20556     20555     20560
     20558     20556     20555     20560     20559     20556     20555     20560
     20560     20555     20553     20579     20560     20563     20566     20567
     20560     20563     20566     20568     20561     20560     20563     20564
     20561     20560     20563     20565     20561     20560     20563     20566
     20562     20560     20563     20564     20562     20560     20563     20565
     20562     20560     20563     20566     20563     20566     20568     20569
     20563     20566     20568     20573     20564     20563     20566     20567
     20564     20563     20566     20568     20565     20563     20566     20567
     20565     20563     20566     20568     20566     20568     20569     20570
     20566     20568     20569     20571     20566     20568     20569     20572
     20566     20568     20573     20574     20566     20568     20573     20575
     20566     20568     20573     20576     20567     20566     20568     20569
     20567     20566     20568     20573     20568     20573     20576     20577
     20568     20573     20576     20578     20569     20568     20573     20574
     20569     20568     20573     20575     20569     20568     20573     20576
     20570     20569     20568     20573     20571     20569     20568     20573
     20572     20569     20568     20573     20574     20573     20576     20577
     20574     20573     20576     20578     20575     20573     20576     20577
     20575     20573     20576     20578     20579     20585     20588     20589
     20579     20585     20588     20590     20579     20585     20588     20591
     20580     20579     20581     20582     20580     20579     20581     20583
     20580     20579     20581     20584     20580     20579     20585     20586
     20580     20579     20585     20587     20580     20579     20585     20588
     20581     20579     20585     20586     20581     20579     20585     20587
     20581     20579     20585     20588     20582     20581     20579     20585
     20583     20581     20579     20585     20584     20581     20579     20585
     20585     20588     20591     20592     20585     20588     20591     20593
     20585     20588     20591     20594     20586     20585     20588     20589
     20586     20585     20588     20590     20586     20585     20588     20591
     20587     20585     20588     20589     20587     20585     20588     20590
     20587     20585     20588     20591     20588     20591     20594     20595
     20588     20591     20594     20596     20588     20591     20594     20600
     20589     20588     20591     20592     20589     20588     20591     20593
     20589     20588     20591     20594     20590     20588     20591     20592
     20590     20588     20591     20593     20590     20588     20591     20594
     20591     20594     20596     20597     20591     20594     20596     20598
     20591     20594     20596     20599     20591     20594     20600     20601
     20591     20594     20600     20602     20591     20594     20600     20603
     20592     20591     20594     20595     20592     20591     20594     20596
     20592     20591     20594     20600     20593     20591     20594     20595
     20593     20591     20594     20596     20593     20591     20594     20600
     20595     20594     20596     20597     20595     20594     20596     20598
     20595     20594     20596     20599     20595     20594     20600     20601
     20595     20594     20600     20602     20595     20594     20600     20603
     20596     20594     20600     20601     20596     20594     20600     20602
     20596     20594     20600     20603     20597     20596     20594     20600
     20598     20596     20594     20600     20599     20596     20594     20600
     20604     20608     20611     20612     20604     20608     20611     20642
     20604     20650     20647     20642     20604     20650     20647     20648
     20604     20650     20647     20649     20605     20604     20606     20607
     20605     20604     20608     20609     20605     20604     20608     20610
     20605     20604     20608     20611     20605     20604     20650     20647
     20605     20604     20650     20651     20605     20604     20650     20652
     20606     20604     20608     20609     20606     20604     20608     20610
     20606     20604     20608     20611     20606     20604     20650     20647
     20606     20604     20650     20651     20606     20604     20650     20652
     20607     20606     20604     20608     20607     20606     20604     20650
     20608     20604     20650     20647     20608     20604     20650     20651
     20608     20604     20650     20652     20608     20611     20612     20613
     20608     20611     20612     20614     20608     20611     20642     20640
     20608     20611     20642     20643     20608     20611     20642     20647
     20609     20608     20604     20650     20609     20608     20611     20612
     20609     20608     20611     20642     20610     20608     20604     20650
     20610     20608     20611     20612     20610     20608     20611     20642
     20611     20608     20604     20650     20611     20612     20614     20615
     20611     20612     20614     20616     20611     20612     20614     20617
     20611     20642     20640     20617     20611     20642     20640     20637
     20611     20642     20640     20641     20611     20642     20643     20644
     20611     20642     20643     20645     20611     20642     20643     20646
     20611     20642     20647     20648     20611     20642     20647     20649
     20611     20642     20647     20650     20612     20611     20642     20640
     20612     20611     20642     20643     20612     20611     20642     20647
     20612     20614     20617     20618     20612     20614     20617     20619
     20612     20614     20617     20640     20613     20612     20611     20642
     20613     20612     20614     20615     20613     20612     20614     20616
     20613     20612     20614     20617     20614     20612     20611     20642
     20614     20617     20619     20620     20614     20617     20619     20621
     20614     20617     20619     20629     20614     20617     20640     20637
     20614     20617     20640     20641     20614     20617     20640     20642
     20615     20614     20617     20618     20615     20614     20617     20619
     20615     20614     20617     20640     20616     20614     20617     20618
     20616     20614     20617     20619     20616     20614     20617     20640
     20617     20619     20621     20622     20617     20619     20621     20623
     20617     20619     20621     20624     20617     20619     20629     20627
     20617     20619     20629     20630     20617     20619     20629     20634
     20617     20640     20637     20634     20617     20640     20637     20638
     20617     20640     20637     20639     20617     20640     20642     20643
     20617     20640     20642     20647     20618     20617     20619     20620
     20618     20617     20619     20621     20618     20617     20619     20629
     20618     20617     20640     20637     20618     20617     20640     20641
     20618     20617     20640     20642     20619     20617     20640     20637
     20619     20617     20640     20641     20619     20617     20640     20642
     20619     20621     20624     20625     20619     20621     20624     20626
     20619     20621     20624     20627     20619     20629     20627     20624
     20619     20629     20627     20628     20619     20629     20627     20653
     20619     20629     20630     20631     20619     20629     20630     20632
     20619     20629     20630     20633     20619     20629     20634     20635
     20619     20629     20634     20636     20619     20629     20634     20637
     20620     20619     20617     20640     20620     20619     20621     20622
     20620     20619     20621     20623     20620     20619     20621     20624
     20620     20619     20629     20627     20620     20619     20629     20630
     20620     20619     20629     20634     20621     20619     20617     20640
     20621     20619     20629     20627     20621     20619     20629     20630
     20621     20619     20629     20634     20621     20624     20627     20628
     20621     20624     20627     20629     20621     20624     20627     20653
     20622     20621     20619     20629     20622     20621     20624     20625
     20622     20621     20624     20626     20622     20621     20624     20627
     20623     20621     20619     20629     20623     20621     20624     20625
     20623     20621     20624     20626     20623     20621     20624     20627
     20624     20621     20619     20629     20624     20627     20629     20630
     20624     20627     20629     20634     20624     20627     20653     20654
     20624     20627     20653     20655     20624     20627     20653     20659
     20625     20624     20627     20628     20625     20624     20627     20629
     20625     20624     20627     20653     20626     20624     20627     20628
     20626     20624     20627     20629     20626     20624     20627     20653
     20627     20629     20630     20631     20627     20629     20630     20632
     20627     20629     20630     20633     20627     20629     20634     20635
     20627     20629     20634     20636     20627     20629     20634     20637
     20627     20653     20655     20656     20627     20653     20655     20657
     20627     20653     20655     20658     20627     20653     20659     20660
     20627     20653     20659     20661     20627     20653     20659     20662
     20628     20627     20629     20630     20628     20627     20629     20634
     20628     20627     20653     20654     20628     20627     20653     20655
     20628     20627     20653     20659     20629     20619     20617     20640
     20629     20627     20653     20654     20629     20627     20653     20655
     20629     20627     20653     20659     20629     20634     20637     20638
     20629     20634     20637     20639     20629     20634     20637     20640
     20630     20629     20627     20653     20630     20629     20634     20635
     20630     20629     20634     20636     20630     20629     20634     20637
     20631     20630     20629     20634     20632     20630     20629     20634
     20633     20630     20629     20634     20634     20629     20627     20653
     20634     20637     20640     20641     20634     20637     20640     20642
     20635     20634     20637     20638     20635     20634     20637     20639
     20635     20634     20637     20640     20636     20634     20637     20638
     20636     20634     20637     20639     20636     20634     20637     20640
     20637     20640     20642     20643     20637     20640     20642     20647
     20638     20637     20640     20641     20638     20637     20640     20642
     20639     20637     20640     20641     20639     20637     20640     20642
     20640     20642     20643     20644     20640     20642     20643     20645
     20640     20642     20643     20646     20640     20642     20647     20648
     20640     20642     20647     20649     20640     20642     20647     20650
     20641     20640     20642     20643     20641     20640     20642     20647
     20642     20647     20650     20651     20642     20647     20650     20652
     20643     20642     20647     20648     20643     20642     20647     20649
     20643     20642     20647     20650     20644     20643     20642     20647
     20645     20643     20642     20647     20646     20643     20642     20647
     20648     20647     20650     20651     20648     20647     20650     20652
     20649     20647     20650     20651     20649     20647     20650     20652
     20653     20659     20662     20663     20653     20659     20662     20664
     20653     20659     20662     20665     20654     20653     20655     20656
     20654     20653     20655     20657     20654     20653     20655     20658
     20654     20653     20659     20660     20654     20653     20659     20661
     20654     20653     20659     20662     20655     20653     20659     20660
     20655     20653     20659     20661     20655     20653     20659     20662
     20656     20655     20653     20659     20657     20655     20653     20659
     20658     20655     20653     20659     20659     20662     20665     20666
     20659     20662     20665     20667     20659     20662     20665     20668
     20660     20659     20662     20663     20660     20659     20662     20664
     20660     20659     20662     20665     20661     20659     20662     20663
     20661     20659     20662     20664     20661     20659     20662     20665
     20662     20665     20668     20669     20662     20665     20668     20670
     20662     20665     20668     20674     20663     20662     20665     20666
     20663     20662     20665     20667     20663     20662     20665     20668
     20664     20662     20665     20666     20664     20662     20665     20667
     20664     20662     20665     20668     20665     20668     20670     20671
     20665     20668     20670     20672     20665     20668     20670     20673
     20665     20668     20674     20675     20665     20668     20674     20676
     20665     20668     20674     20677     20666     20665     20668     20669
     20666     20665     20668     20670     20666     20665     20668     20674
     20667     20665     20668     20669     20667     20665     20668     20670
     20667     20665     20668     20674     20669     20668     20670     20671
     20669     20668     20670     20672     20669     20668     20670     20673
     20669     20668     20674     20675     20669     20668     20674     20676
     20669     20668     20674     20677     20670     20668     20674     20675
     20670     20668     20674     20676     20670     20668     20674     20677
     20671     20670     20668     20674     20672     20670     20668     20674
     20673     20670     20668     20674     20678     20679     20694     20695
     20678     20679     20694     20696     20678     20679     20694     20700
     20679     20678     20682     20683     20679     20678     20682     20684
     20679     20678     20682     20685     20679     20678     20686     20687
     20679     20678     20686     20688     20679     20678     20686     20689
     20679     20678     20690     20691     20679     20678     20690     20692
     20679     20678     20690     20693     20679     20694     20700     20697
     20680     20679     20678     20682     20680     20679     20678     20686
     20680     20679     20678     20690     20680     20679     20694     20695
     20680     20679     20694     20696     20680     20679     20694     20700
     20681     20679     20678     20682     20681     20679     20678     20686
     20681     20679     20678     20690     20681     20679     20694     20695
     20681     20679     20694     20696     20681     20679     20694     20700
     20682     20678     20679     20694     20682     20678     20686     20687
     20682     20678     20686     20688     20682     20678     20686     20689
     20682     20678     20690     20691     20682     20678     20690     20692
     20682     20678     20690     20693     20683     20682     20678     20686
     20683     20682     20678     20690     20684     20682     20678     20686
     20684     20682     20678     20690     20685     20682     20678     20686
     20685     20682     20678     20690     20686     20678     20679     20694
     20686     20678     20690     20691     20686     20678     20690     20692
     20686     20678     20690     20693     20687     20686     20678     20690
     20688     20686     20678     20690     20689     20686     20678     20690
     20690     20678     20679     20694     20694     20700     20697     20698
     20694     20700     20697     20699     20694     20700     20697     20701
     20695     20694     20700     20697     20696     20694     20700     20697
     20697     20701     20702     20703     20697     20701     20702     20704
     20697     20701     20702     20705     20698     20697     20701     20702
     20699     20697     20701     20702     20700     20697     20701     20702
     20701     20702     20705     20706     20701     20702     20705     20707
     20701     20702     20705     20713     20702     20705     20707     20708
     20702     20705     20713     20714     20702     20705     20713     20715
     20702     20705     20713     20716     20703     20702     20705     20706
     20703     20702     20705     20707     20703     20702     20705     20713
     20704     20702     20705     20706     20704     20702     20705     20707
     20704     20702     20705     20713     20705     20707     20708     20709
     20705     20707     20708     20710     20705     20713     20716     20717
     20706     20705     20707     20708     20706     20705     20713     20714
     20706     20705     20713     20715     20706     20705     20713     20716
     20707     20705     20713     20714     20707     20705     20713     20715
     20707     20705     20713     20716     20707     20708     20710     20711
     20707     20708     20710     20712     20707     20708     20710     20722
     20708     20707     20705     20713     20708     20710     20722     20723
     20708     20710     20722     20724     20708     20710     20722     20725
     20709     20708     20710     20711     20709     20708     20710     20712
     20709     20708     20710     20722     20710     20722     20725     20726
     20710     20722     20725     20727     20710     20722     20725     20728
     20711     20710     20722     20723     20711     20710     20722     20724
     20711     20710     20722     20725     20712     20710     20722     20723
     20712     20710     20722     20724     20712     20710     20722     20725
     20713     20716     20717     20718     20713     20716     20717     20719
     20714     20713     20716     20717     20715     20713     20716     20717
     20716     20717     20719     20720     20716     20717     20719     20721
     20716     20717     20719     20769     20717     20719     20769     20770
     20717     20719     20769     20771     20717     20719     20769     20772
     20718     20717     20719     20720     20718     20717     20719     20721
     20718     20717     20719     20769     20719     20769     20772     20773
     20719     20769     20772     20774     20719     20769     20772     20775
     20720     20719     20769     20770     20720     20719     20769     20771
     20720     20719     20769     20772     20721     20719     20769     20770
     20721     20719     20769     20771     20721     20719     20769     20772
     20722     20725     20728     20729     20722     20725     20728     20730
     20723     20722     20725     20726     20723     20722     20725     20727
     20723     20722     20725     20728     20724     20722     20725     20726
     20724     20722     20725     20727     20724     20722     20725     20728
     20725     20728     20730     20731     20725     20728     20730     20732
     20726     20725     20728     20729     20726     20725     20728     20730
     20727     20725     20728     20729     20727     20725     20728     20730
     20728     20730     20732     20733     20728     20730     20732     20734
     20728     20730     20732     20735     20729     20728     20730     20731
     20729     20728     20730     20732     20730     20732     20735     20736
     20730     20732     20735     20737     20731     20730     20732     20733
     20731     20730     20732     20734     20731     20730     20732     20735
     20732     20735     20737     20738     20732     20735     20737     20739
     20733     20732     20735     20736     20733     20732     20735     20737
     20734     20732     20735     20736     20734     20732     20735     20737
     20735     20737     20739     20740     20735     20737     20739     20741
     20735     20737     20739     20742     20736     20735     20737     20738
     20736     20735     20737     20739     20737     20739     20742     20743
     20737     20739     20742     20744     20738     20737     20739     20740
     20738     20737     20739     20741     20738     20737     20739     20742
     20739     20742     20744     20745     20739     20742     20744     20746
     20740     20739     20742     20743     20740     20739     20742     20744
     20741     20739     20742     20743     20741     20739     20742     20744
     20742     20744     20746     20747     20742     20744     20746     20748
     20742     20744     20746     20749     20743     20742     20744     20745
     20743     20742     20744     20746     20744     20746     20749     20750
     20744     20746     20749     20751     20745     20744     20746     20747
     20745     20744     20746     20748     20745     20744     20746     20749
     20746     20749     20751     20752     20746     20749     20751     20753
     20747     20746     20749     20750     20747     20746     20749     20751
     20748     20746     20749     20750     20748     20746     20749     20751
     20749     20751     20753     20754     20749     20751     20753     20755
     20749     20751     20753     20756     20750     20749     20751     20752
     20750     20749     20751     20753     20751     20753     20756     20757
     20751     20753     20756     20758     20751     20753     20756     20759
     20752     20751     20753     20754     20752     20751     20753     20755
     20752     20751     20753     20756     20753     20756     20759     20760
     20753     20756     20759     20761     20753     20756     20759     20762
     20754     20753     20756     20757     20754     20753     20756     20758
     20754     20753     20756     20759     20755     20753     20756     20757
     20755     20753     20756     20758     20755     20753     20756     20759
     20756     20759     20762     20763     20756     20759     20762     20764
     20756     20759     20762     20765     20757     20756     20759     20760
     20757     20756     20759     20761     20757     20756     20759     20762
     20758     20756     20759     20760     20758     20756     20759     20761
     20758     20756     20759     20762     20759     20762     20765     20766
     20759     20762     20765     20767     20759     20762     20765     20768
     20760     20759     20762     20763     20760     20759     20762     20764
     20760     20759     20762     20765     20761     20759     20762     20763
     20761     20759     20762     20764     20761     20759     20762     20765
     20763     20762     20765     20766     20763     20762     20765     20767
     20763     20762     20765     20768     20764     20762     20765     20766
     20764     20762     20765     20767     20764     20762     20765     20768
     20769     20772     20775     20776     20769     20772     20775     20777
     20769     20772     20775     20778     20770     20769     20772     20773
     20770     20769     20772     20774     20770     20769     20772     20775
     20771     20769     20772     20773     20771     20769     20772     20774
     20771     20769     20772     20775     20772     20775     20778     20779
     20772     20775     20778     20780     20772     20775     20778     20781
     20773     20772     20775     20776     20773     20772     20775     20777
     20773     20772     20775     20778     20774     20772     20775     20776
     20774     20772     20775     20777     20774     20772     20775     20778
     20775     20778     20781     20782     20775     20778     20781     20783
     20775     20778     20781     20784     20776     20775     20778     20779
     20776     20775     20778     20780     20776     20775     20778     20781
     20777     20775     20778     20779     20777     20775     20778     20780
     20777     20775     20778     20781     20778     20781     20784     20785
     20778     20781     20784     20786     20778     20781     20784     20787
     20779     20778     20781     20782     20779     20778     20781     20783
     20779     20778     20781     20784     20780     20778     20781     20782
     20780     20778     20781     20783     20780     20778     20781     20784
     20781     20784     20787     20788     20781     20784     20787     20789
     20781     20784     20787     20790     20782     20781     20784     20785
     20782     20781     20784     20786     20782     20781     20784     20787
     20783     20781     20784     20785     20783     20781     20784     20786
     20783     20781     20784     20787     20784     20787     20790     20791
     20784     20787     20790     20792     20784     20787     20790     20793
     20785     20784     20787     20788     20785     20784     20787     20789
     20785     20784     20787     20790     20786     20784     20787     20788
     20786     20784     20787     20789     20786     20784     20787     20790
     20787     20790     20793     20794     20787     20790     20793     20795
     20787     20790     20793     20796     20788     20787     20790     20791
     20788     20787     20790     20792     20788     20787     20790     20793
     20789     20787     20790     20791     20789     20787     20790     20792
     20789     20787     20790     20793     20790     20793     20796     20797
     20790     20793     20796     20798     20790     20793     20796     20799
     20791     20790     20793     20794     20791     20790     20793     20795
     20791     20790     20793     20796     20792     20790     20793     20794
     20792     20790     20793     20795     20792     20790     20793     20796
     20793     20796     20799     20800     20793     20796     20799     20801
     20793     20796     20799     20802     20794     20793     20796     20797
     20794     20793     20796     20798     20794     20793     20796     20799
     20795     20793     20796     20797     20795     20793     20796     20798
     20795     20793     20796     20799     20796     20799     20802     20803
     20796     20799     20802     20804     20796     20799     20802     20805
     20797     20796     20799     20800     20797     20796     20799     20801
     20797     20796     20799     20802     20798     20796     20799     20800
     20798     20796     20799     20801     20798     20796     20799     20802
     20799     20802     20805     20806     20799     20802     20805     20807
     20799     20802     20805     20808     20800     20799     20802     20803
     20800     20799     20802     20804     20800     20799     20802     20805
     20801     20799     20802     20803     20801     20799     20802     20804
     20801     20799     20802     20805     20802     20805     20808     20809
     20802     20805     20808     20810     20802     20805     20808     20811
     20803     20802     20805     20806     20803     20802     20805     20807
     20803     20802     20805     20808     20804     20802     20805     20806
     20804     20802     20805     20807     20804     20802     20805     20808
     20805     20808     20811     20812     20805     20808     20811     20813
     20805     20808     20811     20814     20806     20805     20808     20809
     20806     20805     20808     20810     20806     20805     20808     20811
     20807     20805     20808     20809     20807     20805     20808     20810
     20807     20805     20808     20811     20808     20811     20814     20815
     20808     20811     20814     20816     20808     20811     20814     20817
     20809     20808     20811     20812     20809     20808     20811     20813
     20809     20808     20811     20814     20810     20808     20811     20812
     20810     20808     20811     20813     20810     20808     20811     20814
     20812     20811     20814     20815     20812     20811     20814     20816
     20812     20811     20814     20817     20813     20811     20814     20815
     20813     20811     20814     20816     20813     20811     20814     20817
     20818     20831     20834     20835     20818     20831     20834     20836
     20818     20831     20834     20841     20819     20818     20823     20824
     20819     20818     20823     20825     20819     20818     20823     20826
     20819     20818     20827     20828     20819     20818     20827     20829
     20819     20818     20827     20830     20819     20818     20831     20832
     20819     20818     20831     20833     20819     20818     20831     20834
     20820     20819     20818     20823     20820     20819     20818     20827
     20820     20819     20818     20831     20821     20819     20818     20823
     20821     20819     20818     20827     20821     20819     20818     20831
     20822     20819     20818     20823     20822     20819     20818     20827
     20822     20819     20818     20831     20823     20818     20827     20828
     20823     20818     20827     20829     20823     20818     20827     20830
     20823     20818     20831     20832     20823     20818     20831     20833
     20823     20818     20831     20834     20824     20823     20818     20827
     20824     20823     20818     20831     20825     20823     20818     20827
     20825     20823     20818     20831     20826     20823     20818     20827
     20826     20823     20818     20831     20827     20818     20831     20832
     20827     20818     20831     20833     20827     20818     20831     20834
     20828     20827     20818     20831     20829     20827     20818     20831
     20830     20827     20818     20831     20831     20834     20841     20837
     20832     20831     20834     20835     20832     20831     20834     20836
     20832     20831     20834     20841     20833     20831     20834     20835
     20833     20831     20834     20836     20833     20831     20834     20841
     20834     20841     20837     20838     20834     20841     20837     20839
     20834     20841     20837     20840     20835     20834     20841     20837
     20836     20834     20841     20837     20837     20840     20842     20843
     20837     20840     20842     20844     20837     20840     20842     20847
     20838     20837     20840     20842     20839     20837     20840     20842
     20840     20842     20847     20845     20840     20842     20847     20848
     20840     20842     20847     20849     20841     20837     20840     20842
     20842     20847     20845     20846     20842     20847     20845     20897
     20842     20847     20849     20850     20842     20847     20849     20851
     20842     20847     20849     20853     20843     20842     20847     20845
     20843     20842     20847     20848     20843     20842     20847     20849
     20844     20842     20847     20845     20844     20842     20847     20848
     20844     20842     20847     20849     20845     20847     20849     20850
     20845     20847     20849     20851     20845     20847     20849     20853
     20845     20897     20899     20900     20845     20897     20899     20901
     20845     20897     20899     20902     20846     20845     20847     20848
     20846     20845     20847     20849     20846     20845     20897     20898
     20846     20845     20897     20899     20847     20845     20897     20898
     20847     20845     20897     20899     20847     20849     20851     20852
     20847     20849     20853     20854     20847     20849     20853     20855
     20848     20847     20845     20897     20848     20847     20849     20850
     20848     20847     20849     20851     20848     20847     20849     20853
     20849     20847     20845     20897     20849     20853     20855     20856
     20849     20853     20855     20857     20850     20849     20851     20852
     20850     20849     20853     20854     20850     20849     20853     20855
     20851     20849     20853     20854     20851     20849     20853     20855
     20852     20851     20849     20853     20853     20855     20857     20858
     20853     20855     20857     20859     20853     20855     20857     20860
     20854     20853     20855     20856     20854     20853     20855     20857
     20855     20857     20860     20861     20855     20857     20860     20862
     20855     20857     20860     20863     20856     20855     20857     20858
     20856     20855     20857     20859     20856     20855     20857     20860
     20857     20860     20863     20864     20857     20860     20863     20865
     20857     20860     20863     20866     20858     20857     20860     20861
     20858     20857     20860     20862     20858     20857     20860     20863
     20859     20857     20860     20861     20859     20857     20860     20862
     20859     20857     20860     20863     20860     20863     20866     20867
     20860     20863     20866     20868     20860     20863     20866     20869
     20861     20860     20863     20864     20861     20860     20863     20865
     20861     20860     20863     20866     20862     20860     20863     20864
     20862     20860     20863     20865     20862     20860     20863     20866
     20863     20866     20869     20870     20863     20866     20869     20871
     20863     20866     20869     20872     20864     20863     20866     20867
     20864     20863     20866     20868     20864     20863     20866     20869
     20865     20863     20866     20867     20865     20863     20866     20868
     20865     20863     20866     20869     20866     20869     20872     20873
     20866     20869     20872     20874     20866     20869     20872     20875
     20867     20866     20869     20870     20867     20866     20869     20871
     20867     20866     20869     20872     20868     20866     20869     20870
     20868     20866     20869     20871     20868     20866     20869     20872
     20869     20872     20875     20876     20869     20872     20875     20877
     20869     20872     20875     20878     20870     20869     20872     20873
     20870     20869     20872     20874     20870     20869     20872     20875
     20871     20869     20872     20873     20871     20869     20872     20874
     20871     20869     20872     20875     20872     20875     20878     20879
     20872     20875     20878     20880     20872     20875     20878     20881
     20873     20872     20875     20876     20873     20872     20875     20877
     20873     20872     20875     20878     20874     20872     20875     20876
     20874     20872     20875     20877     20874     20872     20875     20878
     20875     20878     20881     20882     20875     20878     20881     20883
     20875     20878     20881     20884     20876     20875     20878     20879
     20876     20875     20878     20880     20876     20875     20878     20881
     20877     20875     20878     20879     20877     20875     20878     20880
     20877     20875     20878     20881     20878     20881     20884     20885
     20878     20881     20884     20886     20878     20881     20884     20887
     20879     20878     20881     20882     20879     20878     20881     20883
     20879     20878     20881     20884     20880     20878     20881     20882
     20880     20878     20881     20883     20880     20878     20881     20884
     20881     20884     20887     20888     20881     20884     20887     20889
     20881     20884     20887     20890     20882     20881     20884     20885
     20882     20881     20884     20886     20882     20881     20884     20887
     20883     20881     20884     20885     20883     20881     20884     20886
     20883     20881     20884     20887     20884     20887     20890     20891
     20884     20887     20890     20892     20884     20887     20890     20893
     20885     20884     20887     20888     20885     20884     20887     20889
     20885     20884     20887     20890     20886     20884     20887     20888
     20886     20884     20887     20889     20886     20884     20887     20890
     20887     20890     20893     20894     20887     20890     20893     20895
     20887     20890     20893     20896     20888     20887     20890     20891
     20888     20887     20890     20892     20888     20887     20890     20893
     20889     20887     20890     20891     20889     20887     20890     20892
     20889     20887     20890     20893     20891     20890     20893     20894
     20891     20890     20893     20895     20891     20890     20893     20896
     20892     20890     20893     20894     20892     20890     20893     20895
     20892     20890     20893     20896     20897     20899     20902     20903
     20897     20899     20902     20904     20897     20899     20902     20905
     20898     20897     20899     20900     20898     20897     20899     20901
     20898     20897     20899     20902     20899     20902     20905     20906
     20899     20902     20905     20907     20899     20902     20905     20908
     20900     20899     20902     20903     20900     20899     20902     20904
     20900     20899     20902     20905     20901     20899     20902     20903
     20901     20899     20902     20904     20901     20899     20902     20905
     20902     20905     20908     20909     20902     20905     20908     20910
     20902     20905     20908     20911     20903     20902     20905     20906
     20903     20902     20905     20907     20903     20902     20905     20908
     20904     20902     20905     20906     20904     20902     20905     20907
     20904     20902     20905     20908     20905     20908     20911     20912
     20905     20908     20911     20913     20905     20908     20911     20914
     20906     20905     20908     20909     20906     20905     20908     20910
     20906     20905     20908     20911     20907     20905     20908     20909
     20907     20905     20908     20910     20907     20905     20908     20911
     20908     20911     20914     20915     20908     20911     20914     20916
     20908     20911     20914     20917     20909     20908     20911     20912
     20909     20908     20911     20913     20909     20908     20911     20914
     20910     20908     20911     20912     20910     20908     20911     20913
     20910     20908     20911     20914     20911     20914     20917     20918
     20911     20914     20917     20919     20911     20914     20917     20920
     20912     20911     20914     20915     20912     20911     20914     20916
     20912     20911     20914     20917     20913     20911     20914     20915
     20913     20911     20914     20916     20913     20911     20914     20917
     20914     20917     20920     20921     20914     20917     20920     20922
     20915     20914     20917     20918     20915     20914     20917     20919
     20915     20914     20917     20920     20916     20914     20917     20918
     20916     20914     20917     20919     20916     20914     20917     20920
     20917     20920     20922     20923     20917     20920     20922     20924
     20918     20917     20920     20921     20918     20917     20920     20922
     20919     20917     20920     20921     20919     20917     20920     20922
     20920     20922     20924     20925     20920     20922     20924     20926
     20920     20922     20924     20927     20921     20920     20922     20923
     20921     20920     20922     20924     20922     20924     20927     20928
     20922     20924     20927     20929     20922     20924     20927     20930
     20923     20922     20924     20925     20923     20922     20924     20926
     20923     20922     20924     20927     20924     20927     20930     20931
     20924     20927     20930     20932     20924     20927     20930     20933
     20925     20924     20927     20928     20925     20924     20927     20929
     20925     20924     20927     20930     20926     20924     20927     20928
     20926     20924     20927     20929     20926     20924     20927     20930
     20927     20930     20933     20934     20927     20930     20933     20935
     20927     20930     20933     20936     20928     20927     20930     20931
     20928     20927     20930     20932     20928     20927     20930     20933
     20929     20927     20930     20931     20929     20927     20930     20932
     20929     20927     20930     20933     20930     20933     20936     20937
     20930     20933     20936     20938     20930     20933     20936     20939
     20931     20930     20933     20934     20931     20930     20933     20935
     20931     20930     20933     20936     20932     20930     20933     20934
     20932     20930     20933     20935     20932     20930     20933     20936
     20933     20936     20939     20940     20933     20936     20939     20941
     20933     20936     20939     20942     20934     20933     20936     20937
     20934     20933     20936     20938     20934     20933     20936     20939
     20935     20933     20936     20937     20935     20933     20936     20938
     20935     20933     20936     20939     20936     20939     20942     20943
     20936     20939     20942     20944     20936     20939     20942     20945
     20937     20936     20939     20940     20937     20936     20939     20941
     20937     20936     20939     20942     20938     20936     20939     20940
     20938     20936     20939     20941     20938     20936     20939     20942
     20939     20942     20945     20946     20939     20942     20945     20947
     20939     20942     20945     20948     20940     20939     20942     20943
     20940     20939     20942     20944     20940     20939     20942     20945
     20941     20939     20942     20943     20941     20939     20942     20944
     20941     20939     20942     20945     20943     20942     20945     20946
     20943     20942     20945     20947     20943     20942     20945     20948
     20944     20942     20945     20946     20944     20942     20945     20947
     20944     20942     20945     20948     20949     20953     20955     20956
     20949     20953     20955     20957     20949     20953     20958     20959
     20949     20953     20958     20960     20949     20953     20958     20964
     20950     20949     20953     20954     20950     20949     20953     20955
     20950     20949     20953     20958     20951     20949     20953     20954
     20951     20949     20953     20955     20951     20949     20953     20958
     20952     20949     20953     20954     20952     20949     20953     20955
     20952     20949     20953     20958     20953     20958     20964     20961
     20954     20953     20955     20956     20954     20953     20955     20957
     20954     20953     20958     20959     20954     20953     20958     20960
     20954     20953     20958     20964     20955     20953     20958     20959
     20955     20953     20958     20960     20955     20953     20958     20964
     20956     20955     20953     20958     20957     20955     20953     20958
     20958     20964     20961     20962     20958     20964     20961     20963
     20958     20964     20961     20965     20959     20958     20964     20961
     20960     20958     20964     20961     20961     20965     20966     20967
     20961     20965     20966     20968     20961     20965     20966     20969
     20962     20961     20965     20966     20963     20961     20965     20966
     20964     20961     20965     20966     20965     20966     20969     20970
     20965     20966     20969     20971     20965     20966     20969     20977
     20966     20969     20971     20972     20966     20969     20977     20978
     20966     20969     20977     20979     20966     20969     20977     20980
     20967     20966     20969     20970     20967     20966     20969     20971
     20967     20966     20969     20977     20968     20966     20969     20970
     20968     20966     20969     20971     20968     20966     20969     20977
     20969     20971     20972     20973     20969     20971     20972     20974
     20969     20977     20980     20981     20970     20969     20971     20972
     20970     20969     20977     20978     20970     20969     20977     20979
     20970     20969     20977     20980     20971     20969     20977     20978
     20971     20969     20977     20979     20971     20969     20977     20980
     20971     20972     20974     20975     20971     20972     20974     20976
     20971     20972     20974     20986     20972     20971     20969     20977
     20972     20974     20986     20987     20972     20974     20986     20988
     20972     20974     20986     20989     20973     20972     20974     20975
     20973     20972     20974     20976     20973     20972     20974     20986
     20974     20986     20989     20990     20974     20986     20989     20991
     20974     20986     20989     20992     20975     20974     20986     20987
     20975     20974     20986     20988     20975     20974     20986     20989
     20976     20974     20986     20987     20976     20974     20986     20988
     20976     20974     20986     20989     20977     20980     20981     20982
     20977     20980     20981     20983     20978     20977     20980     20981
     20979     20977     20980     20981     20980     20981     20983     20984
     20980     20981     20983     20985     20980     20981     20983     21033
     20981     20983     21033     21034     20981     20983     21033     21035
     20981     20983     21033     21036     20982     20981     20983     20984
     20982     20981     20983     20985     20982     20981     20983     21033
     20983     21033     21036     21037     20983     21033     21036     21038
     20983     21033     21036     21039     20984     20983     21033     21034
     20984     20983     21033     21035     20984     20983     21033     21036
     20985     20983     21033     21034     20985     20983     21033     21035
     20985     20983     21033     21036     20986     20989     20992     20993
     20986     20989     20992     20994     20987     20986     20989     20990
     20987     20986     20989     20991     20987     20986     20989     20992
     20988     20986     20989     20990     20988     20986     20989     20991
     20988     20986     20989     20992     20989     20992     20994     20995
     20989     20992     20994     20996     20990     20989     20992     20993
     20990     20989     20992     20994     20991     20989     20992     20993
     20991     20989     20992     20994     20992     20994     20996     20997
     20992     20994     20996     20998     20992     20994     20996     20999
     20993     20992     20994     20995     20993     20992     20994     20996
     20994     20996     20999     21000     20994     20996     20999     21001
     20995     20994     20996     20997     20995     20994     20996     20998
     20995     20994     20996     20999     20996     20999     21001     21002
     20996     20999     21001     21003     20997     20996     20999     21000
     20997     20996     20999     21001     20998     20996     20999     21000
     20998     20996     20999     21001     20999     21001     21003     21004
     20999     21001     21003     21005     20999     21001     21003     21006
     21000     20999     21001     21002     21000     20999     21001     21003
     21001     21003     21006     21007     21001     21003     21006     21008
     21002     21001     21003     21004     21002     21001     21003     21005
     21002     21001     21003     21006     21003     21006     21008     21009
     21003     21006     21008     21010     21004     21003     21006     21007
     21004     21003     21006     21008     21005     21003     21006     21007
     21005     21003     21006     21008     21006     21008     21010     21011
     21006     21008     21010     21012     21006     21008     21010     21013
     21007     21006     21008     21009     21007     21006     21008     21010
     21008     21010     21013     21014     21008     21010     21013     21015
     21009     21008     21010     21011     21009     21008     21010     21012
     21009     21008     21010     21013     21010     21013     21015     21016
     21010     21013     21015     21017     21011     21010     21013     21014
     21011     21010     21013     21015     21012     21010     21013     21014
     21012     21010     21013     21015     21013     21015     21017     21018
     21013     21015     21017     21019     21013     21015     21017     21020
     21014     21013     21015     21016     21014     21013     21015     21017
     21015     21017     21020     21021     21015     21017     21020     21022
     21015     21017     21020     21023     21016     21015     21017     21018
     21016     21015     21017     21019     21016     21015     21017     21020
     21017     21020     21023     21024     21017     21020     21023     21025
     21017     21020     21023     21026     21018     21017     21020     21021
     21018     21017     21020     21022     21018     21017     21020     21023
     21019     21017     21020     21021     21019     21017     21020     21022
     21019     21017     21020     21023     21020     21023     21026     21027
     21020     21023     21026     21028     21020     21023     21026     21029
     21021     21020     21023     21024     21021     21020     21023     21025
     21021     21020     21023     21026     21022     21020     21023     21024
     21022     21020     21023     21025     21022     21020     21023     21026
     21023     21026     21029     21030     21023     21026     21029     21031
     21023     21026     21029     21032     21024     21023     21026     21027
     21024     21023     21026     21028     21024     21023     21026     21029
     21025     21023     21026     21027     21025     21023     21026     21028
     21025     21023     21026     21029     21027     21026     21029     21030
     21027     21026     21029     21031     21027     21026     21029     21032
     21028     21026     21029     21030     21028     21026     21029     21031
     21028     21026     21029     21032     21033     21036     21039     21040
     21033     21036     21039     21041     21033     21036     21039     21042
     21034     21033     21036     21037     21034     21033     21036     21038
     21034     21033     21036     21039     21035     21033     21036     21037
     21035     21033     21036     21038     21035     21033     21036     21039
     21036     21039     21042     21043     21036     21039     21042     21044
     21036     21039     21042     21045     21037     21036     21039     21040
     21037     21036     21039     21041     21037     21036     21039     21042
     21038     21036     21039     21040     21038     21036     21039     21041
     21038     21036     21039     21042     21039     21042     21045     21046
     21039     21042     21045     21047     21039     21042     21045     21048
     21040     21039     21042     21043     21040     21039     21042     21044
     21040     21039     21042     21045     21041     21039     21042     21043
     21041     21039     21042     21044     21041     21039     21042     21045
     21042     21045     21048     21049     21042     21045     21048     21050
     21042     21045     21048     21051     21043     21042     21045     21046
     21043     21042     21045     21047     21043     21042     21045     21048
     21044     21042     21045     21046     21044     21042     21045     21047
     21044     21042     21045     21048     21045     21048     21051     21052
     21045     21048     21051     21053     21045     21048     21051     21054
     21046     21045     21048     21049     21046     21045     21048     21050
     21046     21045     21048     21051     21047     21045     21048     21049
     21047     21045     21048     21050     21047     21045     21048     21051
     21048     21051     21054     21055     21048     21051     21054     21056
     21048     21051     21054     21057     21049     21048     21051     21052
     21049     21048     21051     21053     21049     21048     21051     21054
     21050     21048     21051     21052     21050     21048     21051     21053
     21050     21048     21051     21054     21051     21054     21057     21058
     21051     21054     21057     21059     21051     21054     21057     21060
     21052     21051     21054     21055     21052     21051     21054     21056
     21052     21051     21054     21057     21053     21051     21054     21055
     21053     21051     21054     21056     21053     21051     21054     21057
     21054     21057     21060     21061     21054     21057     21060     21062
     21054     21057     21060     21063     21055     21054     21057     21058
     21055     21054     21057     21059     21055     21054     21057     21060
     21056     21054     21057     21058     21056     21054     21057     21059
     21056     21054     21057     21060     21057     21060     21063     21064
     21057     21060     21063     21065     21057     21060     21063     21066
     21058     21057     21060     21061     21058     21057     21060     21062
     21058     21057     21060     21063     21059     21057     21060     21061
     21059     21057     21060     21062     21059     21057     21060     21063
     21060     21063     21066     21067     21060     21063     21066     21068
     21060     21063     21066     21069     21061     21060     21063     21064
     21061     21060     21063     21065     21061     21060     21063     21066
     21062     21060     21063     21064     21062     21060     21063     21065
     21062     21060     21063     21066     21063     21066     21069     21070
     21063     21066     21069     21071     21063     21066     21069     21072
     21064     21063     21066     21067     21064     21063     21066     21068
     21064     21063     21066     21069     21065     21063     21066     21067
     21065     21063     21066     21068     21065     21063     21066     21069
     21066     21069     21072     21073     21066     21069     21072     21074
     21066     21069     21072     21075     21067     21066     21069     21070
     21067     21066     21069     21071     21067     21066     21069     21072
     21068     21066     21069     21070     21068     21066     21069     21071
     21068     21066     21069     21072     21069     21072     21075     21076
     21069     21072     21075     21077     21069     21072     21075     21078
     21070     21069     21072     21073     21070     21069     21072     21074
     21070     21069     21072     21075     21071     21069     21072     21073
     21071     21069     21072     21074     21071     21069     21072     21075
     21072     21075     21078     21079     21072     21075     21078     21080
     21072     21075     21078     21081     21073     21072     21075     21076
     21073     21072     21075     21077     21073     21072     21075     21078
     21074     21072     21075     21076     21074     21072     21075     21077
     21074     21072     21075     21078     21076     21075     21078     21079
     21076     21075     21078     21080     21076     21075     21078     21081
     21077     21075     21078     21079     21077     21075     21078     21080
     21077     21075     21078     21081     21082     21086     21089     21090
     21082     21086     21089     21120     21082     21128     21125     21120
     21082     21128     21125     21126     21082     21128     21125     21127
     21083     21082     21084     21085     21083     21082     21086     21087
     21083     21082     21086     21088     21083     21082     21086     21089
     21083     21082     21128     21125     21083     21082     21128     21129
     21083     21082     21128     21130     21084     21082     21086     21087
     21084     21082     21086     21088     21084     21082     21086     21089
     21084     21082     21128     21125     21084     21082     21128     21129
     21084     21082     21128     21130     21085     21084     21082     21086
     21085     21084     21082     21128     21086     21082     21128     21125
     21086     21082     21128     21129     21086     21082     21128     21130
     21086     21089     21090     21091     21086     21089     21090     21092
     21086     21089     21120     21118     21086     21089     21120     21121
     21086     21089     21120     21125     21087     21086     21082     21128
     21087     21086     21089     21090     21087     21086     21089     21120
     21088     21086     21082     21128     21088     21086     21089     21090
     21088     21086     21089     21120     21089     21086     21082     21128
     21089     21090     21092     21093     21089     21090     21092     21094
     21089     21090     21092     21095     21089     21120     21118     21095
     21089     21120     21118     21115     21089     21120     21118     21119
     21089     21120     21121     21122     21089     21120     21121     21123
     21089     21120     21121     21124     21089     21120     21125     21126
     21089     21120     21125     21127     21089     21120     21125     21128
     21090     21089     21120     21118     21090     21089     21120     21121
     21090     21089     21120     21125     21090     21092     21095     21096
     21090     21092     21095     21097     21090     21092     21095     21118
     21091     21090     21089     21120     21091     21090     21092     21093
     21091     21090     21092     21094     21091     21090     21092     21095
     21092     21090     21089     21120     21092     21095     21097     21098
     21092     21095     21097     21099     21092     21095     21097     21107
     21092     21095     21118     21115     21092     21095     21118     21119
     21092     21095     21118     21120     21093     21092     21095     21096
     21093     21092     21095     21097     21093     21092     21095     21118
     21094     21092     21095     21096     21094     21092     21095     21097
     21094     21092     21095     21118     21095     21097     21099     21100
     21095     21097     21099     21101     21095     21097     21099     21102
     21095     21097     21107     21105     21095     21097     21107     21108
     21095     21097     21107     21112     21095     21118     21115     21112
     21095     21118     21115     21116     21095     21118     21115     21117
     21095     21118     21120     21121     21095     21118     21120     21125
     21096     21095     21097     21098     21096     21095     21097     21099
     21096     21095     21097     21107     21096     21095     21118     21115
     21096     21095     21118     21119     21096     21095     21118     21120
     21097     21095     21118     21115     21097     21095     21118     21119
     21097     21095     21118     21120     21097     21099     21102     21103
     21097     21099     21102     21104     21097     21099     21102     21105
     21097     21107     21105     21102     21097     21107     21105     21106
     21097     21107     21105     21131     21097     21107     21108     21109
     21097     21107     21108     21110     21097     21107     21108     21111
     21097     21107     21112     21113     21097     21107     21112     21114
     21097     21107     21112     21115     21098     21097     21095     21118
     21098     21097     21099     21100     21098     21097     21099     21101
     21098     21097     21099     21102     21098     21097     21107     21105
     21098     21097     21107     21108     21098     21097     21107     21112
     21099     21097     21095     21118     21099     21097     21107     21105
     21099     21097     21107     21108     21099     21097     21107     21112
     21099     21102     21105     21106     21099     21102     21105     21107
     21099     21102     21105     21131     21100     21099     21097     21107
     21100     21099     21102     21103     21100     21099     21102     21104
     21100     21099     21102     21105     21101     21099     21097     21107
     21101     21099     21102     21103     21101     21099     21102     21104
     21101     21099     21102     21105     21102     21099     21097     21107
     21102     21105     21107     21108     21102     21105     21107     21112
     21102     21105     21131     21132     21102     21105     21131     21133
     21102     21105     21131     21137     21103     21102     21105     21106
     21103     21102     21105     21107     21103     21102     21105     21131
     21104     21102     21105     21106     21104     21102     21105     21107
     21104     21102     21105     21131     21105     21107     21108     21109
     21105     21107     21108     21110     21105     21107     21108     21111
     21105     21107     21112     21113     21105     21107     21112     21114
     21105     21107     21112     21115     21105     21131     21133     21134
     21105     21131     21133     21135     21105     21131     21133     21136
     21105     21131     21137     21138     21105     21131     21137     21139
     21105     21131     21137     21140     21106     21105     21107     21108
     21106     21105     21107     21112     21106     21105     21131     21132
     21106     21105     21131     21133     21106     21105     21131     21137
     21107     21097     21095     21118     21107     21105     21131     21132
     21107     21105     21131     21133     21107     21105     21131     21137
     21107     21112     21115     21116     21107     21112     21115     21117
     21107     21112     21115     21118     21108     21107     21105     21131
     21108     21107     21112     21113     21108     21107     21112     21114
     21108     21107     21112     21115     21109     21108     21107     21112
     21110     21108     21107     21112     21111     21108     21107     21112
     21112     21107     21105     21131     21112     21115     21118     21119
     21112     21115     21118     21120     21113     21112     21115     21116
     21113     21112     21115     21117     21113     21112     21115     21118
     21114     21112     21115     21116     21114     21112     21115     21117
     21114     21112     21115     21118     21115     21118     21120     21121
     21115     21118     21120     21125     21116     21115     21118     21119
     21116     21115     21118     21120     21117     21115     21118     21119
     21117     21115     21118     21120     21118     21120     21121     21122
     21118     21120     21121     21123     21118     21120     21121     21124
     21118     21120     21125     21126     21118     21120     21125     21127
     21118     21120     21125     21128     21119     21118     21120     21121
     21119     21118     21120     21125     21120     21125     21128     21129
     21120     21125     21128     21130     21121     21120     21125     21126
     21121     21120     21125     21127     21121     21120     21125     21128
     21122     21121     21120     21125     21123     21121     21120     21125
     21124     21121     21120     21125     21126     21125     21128     21129
     21126     21125     21128     21130     21127     21125     21128     21129
     21127     21125     21128     21130     21131     21137     21140     21141
     21131     21137     21140     21142     21131     21137     21140     21143
     21132     21131     21133     21134     21132     21131     21133     21135
     21132     21131     21133     21136     21132     21131     21137     21138
     21132     21131     21137     21139     21132     21131     21137     21140
     21133     21131     21137     21138     21133     21131     21137     21139
     21133     21131     21137     21140     21134     21133     21131     21137
     21135     21133     21131     21137     21136     21133     21131     21137
     21137     21140     21143     21144     21137     21140     21143     21145
     21137     21140     21143     21146     21138     21137     21140     21141
     21138     21137     21140     21142     21138     21137     21140     21143
     21139     21137     21140     21141     21139     21137     21140     21142
     21139     21137     21140     21143     21140     21143     21146     21147
     21140     21143     21146     21148     21140     21143     21146     21152
     21141     21140     21143     21144     21141     21140     21143     21145
     21141     21140     21143     21146     21142     21140     21143     21144
     21142     21140     21143     21145     21142     21140     21143     21146
     21143     21146     21148     21149     21143     21146     21148     21150
     21143     21146     21148     21151     21143     21146     21152     21153
     21143     21146     21152     21154     21143     21146     21152     21155
     21144     21143     21146     21147     21144     21143     21146     21148
     21144     21143     21146     21152     21145     21143     21146     21147
     21145     21143     21146     21148     21145     21143     21146     21152
     21147     21146     21148     21149     21147     21146     21148     21150
     21147     21146     21148     21151     21147     21146     21152     21153
     21147     21146     21152     21154     21147     21146     21152     21155
     21148     21146     21152     21153     21148     21146     21152     21154
     21148     21146     21152     21155     21149     21148     21146     21152
     21150     21148     21146     21152     21151     21148     21146     21152
     21156     21160     21163     21164     21156     21160     21163     21194
     21156     21202     21199     21194     21156     21202     21199     21200
     21156     21202     21199     21201     21157     21156     21158     21159
     21157     21156     21160     21161     21157     21156     21160     21162
     21157     21156     21160     21163     21157     21156     21202     21199
     21157     21156     21202     21203     21157     21156     21202     21204
     21158     21156     21160     21161     21158     21156     21160     21162
     21158     21156     21160     21163     21158     21156     21202     21199
     21158     21156     21202     21203     21158     21156     21202     21204
     21159     21158     21156     21160     21159     21158     21156     21202
     21160     21156     21202     21199     21160     21156     21202     21203
     21160     21156     21202     21204     21160     21163     21164     21165
     21160     21163     21164     21166     21160     21163     21194     21192
     21160     21163     21194     21195     21160     21163     21194     21199
     21161     21160     21156     21202     21161     21160     21163     21164
     21161     21160     21163     21194     21162     21160     21156     21202
     21162     21160     21163     21164     21162     21160     21163     21194
     21163     21160     21156     21202     21163     21164     21166     21167
     21163     21164     21166     21168     21163     21164     21166     21169
     21163     21194     21192     21169     21163     21194     21192     21189
     21163     21194     21192     21193     21163     21194     21195     21196
     21163     21194     21195     21197     21163     21194     21195     21198
     21163     21194     21199     21200     21163     21194     21199     21201
     21163     21194     21199     21202     21164     21163     21194     21192
     21164     21163     21194     21195     21164     21163     21194     21199
     21164     21166     21169     21170     21164     21166     21169     21171
     21164     21166     21169     21192     21165     21164     21163     21194
     21165     21164     21166     21167     21165     21164     21166     21168
     21165     21164     21166     21169     21166     21164     21163     21194
     21166     21169     21171     21172     21166     21169     21171     21173
     21166     21169     21171     21181     21166     21169     21192     21189
     21166     21169     21192     21193     21166     21169     21192     21194
     21167     21166     21169     21170     21167     21166     21169     21171
     21167     21166     21169     21192     21168     21166     21169     21170
     21168     21166     21169     21171     21168     21166     21169     21192
     21169     21171     21173     21174     21169     21171     21173     21175
     21169     21171     21173     21176     21169     21171     21181     21179
     21169     21171     21181     21182     21169     21171     21181     21186
     21169     21192     21189     21186     21169     21192     21189     21190
     21169     21192     21189     21191     21169     21192     21194     21195
     21169     21192     21194     21199     21170     21169     21171     21172
     21170     21169     21171     21173     21170     21169     21171     21181
     21170     21169     21192     21189     21170     21169     21192     21193
     21170     21169     21192     21194     21171     21169     21192     21189
     21171     21169     21192     21193     21171     21169     21192     21194
     21171     21173     21176     21177     21171     21173     21176     21178
     21171     21173     21176     21179     21171     21181     21179     21176
     21171     21181     21179     21180     21171     21181     21179     21205
     21171     21181     21182     21183     21171     21181     21182     21184
     21171     21181     21182     21185     21171     21181     21186     21187
     21171     21181     21186     21188     21171     21181     21186     21189
     21172     21171     21169     21192     21172     21171     21173     21174
     21172     21171     21173     21175     21172     21171     21173     21176
     21172     21171     21181     21179     21172     21171     21181     21182
     21172     21171     21181     21186     21173     21171     21169     21192
     21173     21171     21181     21179     21173     21171     21181     21182
     21173     21171     21181     21186     21173     21176     21179     21180
     21173     21176     21179     21181     21173     21176     21179     21205
     21174     21173     21171     21181     21174     21173     21176     21177
     21174     21173     21176     21178     21174     21173     21176     21179
     21175     21173     21171     21181     21175     21173     21176     21177
     21175     21173     21176     21178     21175     21173     21176     21179
     21176     21173     21171     21181     21176     21179     21181     21182
     21176     21179     21181     21186     21176     21179     21205     21206
     21176     21179     21205     21207     21176     21179     21205     21211
     21177     21176     21179     21180     21177     21176     21179     21181
     21177     21176     21179     21205     21178     21176     21179     21180
     21178     21176     21179     21181     21178     21176     21179     21205
     21179     21181     21182     21183     21179     21181     21182     21184
     21179     21181     21182     21185     21179     21181     21186     21187
     21179     21181     21186     21188     21179     21181     21186     21189
     21179     21205     21207     21208     21179     21205     21207     21209
     21179     21205     21207     21210     21179     21205     21211     21212
     21179     21205     21211     21213     21179     21205     21211     21214
     21180     21179     21181     21182     21180     21179     21181     21186
     21180     21179     21205     21206     21180     21179     21205     21207
     21180     21179     21205     21211     21181     21171     21169     21192
     21181     21179     21205     21206     21181     21179     21205     21207
     21181     21179     21205     21211     21181     21186     21189     21190
     21181     21186     21189     21191     21181     21186     21189     21192
     21182     21181     21179     21205     21182     21181     21186     21187
     21182     21181     21186     21188     21182     21181     21186     21189
     21183     21182     21181     21186     21184     21182     21181     21186
     21185     21182     21181     21186     21186     21181     21179     21205
     21186     21189     21192     21193     21186     21189     21192     21194
     21187     21186     21189     21190     21187     21186     21189     21191
     21187     21186     21189     21192     21188     21186     21189     21190
     21188     21186     21189     21191     21188     21186     21189     21192
     21189     21192     21194     21195     21189     21192     21194     21199
     21190     21189     21192     21193     21190     21189     21192     21194
     21191     21189     21192     21193     21191     21189     21192     21194
     21192     21194     21195     21196     21192     21194     21195     21197
     21192     21194     21195     21198     21192     21194     21199     21200
     21192     21194     21199     21201     21192     21194     21199     21202
     21193     21192     21194     21195     21193     21192     21194     21199
     21194     21199     21202     21203     21194     21199     21202     21204
     21195     21194     21199     21200     21195     21194     21199     21201
     21195     21194     21199     21202     21196     21195     21194     21199
     21197     21195     21194     21199     21198     21195     21194     21199
     21200     21199     21202     21203     21200     21199     21202     21204
     21201     21199     21202     21203     21201     21199     21202     21204
     21205     21211     21214     21215     21205     21211     21214     21216
     21205     21211     21214     21217     21206     21205     21207     21208
     21206     21205     21207     21209     21206     21205     21207     21210
     21206     21205     21211     21212     21206     21205     21211     21213
     21206     21205     21211     21214     21207     21205     21211     21212
     21207     21205     21211     21213     21207     21205     21211     21214
     21208     21207     21205     21211     21209     21207     21205     21211
     21210     21207     21205     21211     21211     21214     21217     21218
     21211     21214     21217     21219     21211     21214     21217     21220
     21212     21211     21214     21215     21212     21211     21214     21216
     21212     21211     21214     21217     21213     21211     21214     21215
     21213     21211     21214     21216     21213     21211     21214     21217
     21214     21217     21220     21221     21214     21217     21220     21222
     21214     21217     21220     21226     21215     21214     21217     21218
     21215     21214     21217     21219     21215     21214     21217     21220
     21216     21214     21217     21218     21216     21214     21217     21219
     21216     21214     21217     21220     21217     21220     21222     21223
     21217     21220     21222     21224     21217     21220     21222     21225
     21217     21220     21226     21227     21217     21220     21226     21228
     21217     21220     21226     21229     21218     21217     21220     21221
     21218     21217     21220     21222     21218     21217     21220     21226
     21219     21217     21220     21221     21219     21217     21220     21222
     21219     21217     21220     21226     21221     21220     21222     21223
     21221     21220     21222     21224     21221     21220     21222     21225
     21221     21220     21226     21227     21221     21220     21226     21228
     21221     21220     21226     21229     21222     21220     21226     21227
     21222     21220     21226     21228     21222     21220     21226     21229
     21223     21222     21220     21226     21224     21222     21220     21226
     21225     21222     21220     21226     21230     21243     21246     21247
     21230     21243     21246     21248     21230     21243     21246     21253
     21231     21230     21235     21236     21231     21230     21235     21237
     21231     21230     21235     21238     21231     21230     21239     21240
     21231     21230     21239     21241     21231     21230     21239     21242
     21231     21230     21243     21244     21231     21230     21243     21245
     21231     21230     21243     21246     21232     21231     21230     21235
     21232     21231     21230     21239     21232     21231     21230     21243
     21233     21231     21230     21235     21233     21231     21230     21239
     21233     21231     21230     21243     21234     21231     21230     21235
     21234     21231     21230     21239     21234     21231     21230     21243
     21235     21230     21239     21240     21235     21230     21239     21241
     21235     21230     21239     21242     21235     21230     21243     21244
     21235     21230     21243     21245     21235     21230     21243     21246
     21236     21235     21230     21239     21236     21235     21230     21243
     21237     21235     21230     21239     21237     21235     21230     21243
     21238     21235     21230     21239     21238     21235     21230     21243
     21239     21230     21243     21244     21239     21230     21243     21245
     21239     21230     21243     21246     21240     21239     21230     21243
     21241     21239     21230     21243     21242     21239     21230     21243
     21243     21246     21253     21249     21244     21243     21246     21247
     21244     21243     21246     21248     21244     21243     21246     21253
     21245     21243     21246     21247     21245     21243     21246     21248
     21245     21243     21246     21253     21246     21253     21249     21250
     21246     21253     21249     21251     21246     21253     21249     21252
     21247     21246     21253     21249     21248     21246     21253     21249
     21249     21252     21254     21255     21249     21252     21254     21256
     21249     21252     21254     21259     21250     21249     21252     21254
     21251     21249     21252     21254     21252     21254     21259     21257
     21252     21254     21259     21260     21252     21254     21259     21261
     21253     21249     21252     21254     21254     21259     21257     21258
     21254     21259     21257     21309     21254     21259     21261     21262
     21254     21259     21261     21263     21254     21259     21261     21265
     21255     21254     21259     21257     21255     21254     21259     21260
     21255     21254     21259     21261     21256     21254     21259     21257
     21256     21254     21259     21260     21256     21254     21259     21261
     21257     21259     21261     21262     21257     21259     21261     21263
     21257     21259     21261     21265     21257     21309     21311     21312
     21257     21309     21311     21313     21257     21309     21311     21314
     21258     21257     21259     21260     21258     21257     21259     21261
     21258     21257     21309     21310     21258     21257     21309     21311
     21259     21257     21309     21310     21259     21257     21309     21311
     21259     21261     21263     21264     21259     21261     21265     21266
     21259     21261     21265     21267     21260     21259     21257     21309
     21260     21259     21261     21262     21260     21259     21261     21263
     21260     21259     21261     21265     21261     21259     21257     21309
     21261     21265     21267     21268     21261     21265     21267     21269
     21262     21261     21263     21264     21262     21261     21265     21266
     21262     21261     21265     21267     21263     21261     21265     21266
     21263     21261     21265     21267     21264     21263     21261     21265
     21265     21267     21269     21270     21265     21267     21269     21271
     21265     21267     21269     21272     21266     21265     21267     21268
     21266     21265     21267     21269     21267     21269     21272     21273
     21267     21269     21272     21274     21267     21269     21272     21275
     21268     21267     21269     21270     21268     21267     21269     21271
     21268     21267     21269     21272     21269     21272     21275     21276
     21269     21272     21275     21277     21269     21272     21275     21278
     21270     21269     21272     21273     21270     21269     21272     21274
     21270     21269     21272     21275     21271     21269     21272     21273
     21271     21269     21272     21274     21271     21269     21272     21275
     21272     21275     21278     21279     21272     21275     21278     21280
     21272     21275     21278     21281     21273     21272     21275     21276
     21273     21272     21275     21277     21273     21272     21275     21278
     21274     21272     21275     21276     21274     21272     21275     21277
     21274     21272     21275     21278     21275     21278     21281     21282
     21275     21278     21281     21283     21275     21278     21281     21284
     21276     21275     21278     21279     21276     21275     21278     21280
     21276     21275     21278     21281     21277     21275     21278     21279
     21277     21275     21278     21280     21277     21275     21278     21281
     21278     21281     21284     21285     21278     21281     21284     21286
     21278     21281     21284     21287     21279     21278     21281     21282
     21279     21278     21281     21283     21279     21278     21281     21284
     21280     21278     21281     21282     21280     21278     21281     21283
     21280     21278     21281     21284     21281     21284     21287     21288
     21281     21284     21287     21289     21281     21284     21287     21290
     21282     21281     21284     21285     21282     21281     21284     21286
     21282     21281     21284     21287     21283     21281     21284     21285
     21283     21281     21284     21286     21283     21281     21284     21287
     21284     21287     21290     21291     21284     21287     21290     21292
     21284     21287     21290     21293     21285     21284     21287     21288
     21285     21284     21287     21289     21285     21284     21287     21290
     21286     21284     21287     21288     21286     21284     21287     21289
     21286     21284     21287     21290     21287     21290     21293     21294
     21287     21290     21293     21295     21287     21290     21293     21296
     21288     21287     21290     21291     21288     21287     21290     21292
     21288     21287     21290     21293     21289     21287     21290     21291
     21289     21287     21290     21292     21289     21287     21290     21293
     21290     21293     21296     21297     21290     21293     21296     21298
     21290     21293     21296     21299     21291     21290     21293     21294
     21291     21290     21293     21295     21291     21290     21293     21296
     21292     21290     21293     21294     21292     21290     21293     21295
     21292     21290     21293     21296     21293     21296     21299     21300
     21293     21296     21299     21301     21293     21296     21299     21302
     21294     21293     21296     21297     21294     21293     21296     21298
     21294     21293     21296     21299     21295     21293     21296     21297
     21295     21293     21296     21298     21295     21293     21296     21299
     21296     21299     21302     21303     21296     21299     21302     21304
     21296     21299     21302     21305     21297     21296     21299     21300
     21297     21296     21299     21301     21297     21296     21299     21302
     21298     21296     21299     21300     21298     21296     21299     21301
     21298     21296     21299     21302     21299     21302     21305     21306
     21299     21302     21305     21307     21299     21302     21305     21308
     21300     21299     21302     21303     21300     21299     21302     21304
     21300     21299     21302     21305     21301     21299     21302     21303
     21301     21299     21302     21304     21301     21299     21302     21305
     21303     21302     21305     21306     21303     21302     21305     21307
     21303     21302     21305     21308     21304     21302     21305     21306
     21304     21302     21305     21307     21304     21302     21305     21308
     21309     21311     21314     21315     21309     21311     21314     21316
     21309     21311     21314     21317     21310     21309     21311     21312
     21310     21309     21311     21313     21310     21309     21311     21314
     21311     21314     21317     21318     21311     21314     21317     21319
     21311     21314     21317     21320     21312     21311     21314     21315
     21312     21311     21314     21316     21312     21311     21314     21317
     21313     21311     21314     21315     21313     21311     21314     21316
     21313     21311     21314     21317     21314     21317     21320     21321
     21314     21317     21320     21322     21314     21317     21320     21323
     21315     21314     21317     21318     21315     21314     21317     21319
     21315     21314     21317     21320     21316     21314     21317     21318
     21316     21314     21317     21319     21316     21314     21317     21320
     21317     21320     21323     21324     21317     21320     21323     21325
     21317     21320     21323     21326     21318     21317     21320     21321
     21318     21317     21320     21322     21318     21317     21320     21323
     21319     21317     21320     21321     21319     21317     21320     21322
     21319     21317     21320     21323     21320     21323     21326     21327
     21320     21323     21326     21328     21320     21323     21326     21329
     21321     21320     21323     21324     21321     21320     21323     21325
     21321     21320     21323     21326     21322     21320     21323     21324
     21322     21320     21323     21325     21322     21320     21323     21326
     21323     21326     21329     21330     21323     21326     21329     21331
     21323     21326     21329     21332     21324     21323     21326     21327
     21324     21323     21326     21328     21324     21323     21326     21329
     21325     21323     21326     21327     21325     21323     21326     21328
     21325     21323     21326     21329     21326     21329     21332     21333
     21326     21329     21332     21334     21327     21326     21329     21330
     21327     21326     21329     21331     21327     21326     21329     21332
     21328     21326     21329     21330     21328     21326     21329     21331
     21328     21326     21329     21332     21329     21332     21334     21335
     21329     21332     21334     21336     21330     21329     21332     21333
     21330     21329     21332     21334     21331     21329     21332     21333
     21331     21329     21332     21334     21332     21334     21336     21337
     21332     21334     21336     21338     21332     21334     21336     21339
     21333     21332     21334     21335     21333     21332     21334     21336
     21334     21336     21339     21340     21334     21336     21339     21341
     21334     21336     21339     21342     21335     21334     21336     21337
     21335     21334     21336     21338     21335     21334     21336     21339
     21336     21339     21342     21343     21336     21339     21342     21344
     21336     21339     21342     21345     21337     21336     21339     21340
     21337     21336     21339     21341     21337     21336     21339     21342
     21338     21336     21339     21340     21338     21336     21339     21341
     21338     21336     21339     21342     21339     21342     21345     21346
     21339     21342     21345     21347     21339     21342     21345     21348
     21340     21339     21342     21343     21340     21339     21342     21344
     21340     21339     21342     21345     21341     21339     21342     21343
     21341     21339     21342     21344     21341     21339     21342     21345
     21342     21345     21348     21349     21342     21345     21348     21350
     21342     21345     21348     21351     21343     21342     21345     21346
     21343     21342     21345     21347     21343     21342     21345     21348
     21344     21342     21345     21346     21344     21342     21345     21347
     21344     21342     21345     21348     21345     21348     21351     21352
     21345     21348     21351     21353     21345     21348     21351     21354
     21346     21345     21348     21349     21346     21345     21348     21350
     21346     21345     21348     21351     21347     21345     21348     21349
     21347     21345     21348     21350     21347     21345     21348     21351
     21348     21351     21354     21355     21348     21351     21354     21356
     21348     21351     21354     21357     21349     21348     21351     21352
     21349     21348     21351     21353     21349     21348     21351     21354
     21350     21348     21351     21352     21350     21348     21351     21353
     21350     21348     21351     21354     21351     21354     21357     21358
     21351     21354     21357     21359     21351     21354     21357     21360
     21352     21351     21354     21355     21352     21351     21354     21356
     21352     21351     21354     21357     21353     21351     21354     21355
     21353     21351     21354     21356     21353     21351     21354     21357
     21355     21354     21357     21358     21355     21354     21357     21359
     21355     21354     21357     21360     21356     21354     21357     21358
     21356     21354     21357     21359     21356     21354     21357     21360
     21361     21365     21368     21369     21361     21365     21368     21399
     21361     21407     21404     21399     21361     21407     21404     21405
     21361     21407     21404     21406     21362     21361     21363     21364
     21362     21361     21365     21366     21362     21361     21365     21367
     21362     21361     21365     21368     21362     21361     21407     21404
     21362     21361     21407     21408     21362     21361     21407     21409
     21363     21361     21365     21366     21363     21361     21365     21367
     21363     21361     21365     21368     21363     21361     21407     21404
     21363     21361     21407     21408     21363     21361     21407     21409
     21364     21363     21361     21365     21364     21363     21361     21407
     21365     21361     21407     21404     21365     21361     21407     21408
     21365     21361     21407     21409     21365     21368     21369     21370
     21365     21368     21369     21371     21365     21368     21399     21397
     21365     21368     21399     21400     21365     21368     21399     21404
     21366     21365     21361     21407     21366     21365     21368     21369
     21366     21365     21368     21399     21367     21365     21361     21407
     21367     21365     21368     21369     21367     21365     21368     21399
     21368     21365     21361     21407     21368     21369     21371     21372
     21368     21369     21371     21373     21368     21369     21371     21374
     21368     21399     21397     21374     21368     21399     21397     21394
     21368     21399     21397     21398     21368     21399     21400     21401
     21368     21399     21400     21402     21368     21399     21400     21403
     21368     21399     21404     21405     21368     21399     21404     21406
     21368     21399     21404     21407     21369     21368     21399     21397
     21369     21368     21399     21400     21369     21368     21399     21404
     21369     21371     21374     21375     21369     21371     21374     21376
     21369     21371     21374     21397     21370     21369     21368     21399
     21370     21369     21371     21372     21370     21369     21371     21373
     21370     21369     21371     21374     21371     21369     21368     21399
     21371     21374     21376     21377     21371     21374     21376     21378
     21371     21374     21376     21386     21371     21374     21397     21394
     21371     21374     21397     21398     21371     21374     21397     21399
     21372     21371     21374     21375     21372     21371     21374     21376
     21372     21371     21374     21397     21373     21371     21374     21375
     21373     21371     21374     21376     21373     21371     21374     21397
     21374     21376     21378     21379     21374     21376     21378     21380
     21374     21376     21378     21381     21374     21376     21386     21384
     21374     21376     21386     21387     21374     21376     21386     21391
     21374     21397     21394     21391     21374     21397     21394     21395
     21374     21397     21394     21396     21374     21397     21399     21400
     21374     21397     21399     21404     21375     21374     21376     21377
     21375     21374     21376     21378     21375     21374     21376     21386
     21375     21374     21397     21394     21375     21374     21397     21398
     21375     21374     21397     21399     21376     21374     21397     21394
     21376     21374     21397     21398     21376     21374     21397     21399
     21376     21378     21381     21382     21376     21378     21381     21383
     21376     21378     21381     21384     21376     21386     21384     21381
     21376     21386     21384     21385     21376     21386     21384     21410
     21376     21386     21387     21388     21376     21386     21387     21389
     21376     21386     21387     21390     21376     21386     21391     21392
     21376     21386     21391     21393     21376     21386     21391     21394
     21377     21376     21374     21397     21377     21376     21378     21379
     21377     21376     21378     21380     21377     21376     21378     21381
     21377     21376     21386     21384     21377     21376     21386     21387
     21377     21376     21386     21391     21378     21376     21374     21397
     21378     21376     21386     21384     21378     21376     21386     21387
     21378     21376     21386     21391     21378     21381     21384     21385
     21378     21381     21384     21386     21378     21381     21384     21410
     21379     21378     21376     21386     21379     21378     21381     21382
     21379     21378     21381     21383     21379     21378     21381     21384
     21380     21378     21376     21386     21380     21378     21381     21382
     21380     21378     21381     21383     21380     21378     21381     21384
     21381     21378     21376     21386     21381     21384     21386     21387
     21381     21384     21386     21391     21381     21384     21410     21411
     21381     21384     21410     21412     21381     21384     21410     21416
     21382     21381     21384     21385     21382     21381     21384     21386
     21382     21381     21384     21410     21383     21381     21384     21385
     21383     21381     21384     21386     21383     21381     21384     21410
     21384     21386     21387     21388     21384     21386     21387     21389
     21384     21386     21387     21390     21384     21386     21391     21392
     21384     21386     21391     21393     21384     21386     21391     21394
     21384     21410     21412     21413     21384     21410     21412     21414
     21384     21410     21412     21415     21384     21410     21416     21417
     21384     21410     21416     21418     21384     21410     21416     21419
     21385     21384     21386     21387     21385     21384     21386     21391
     21385     21384     21410     21411     21385     21384     21410     21412
     21385     21384     21410     21416     21386     21376     21374     21397
     21386     21384     21410     21411     21386     21384     21410     21412
     21386     21384     21410     21416     21386     21391     21394     21395
     21386     21391     21394     21396     21386     21391     21394     21397
     21387     21386     21384     21410     21387     21386     21391     21392
     21387     21386     21391     21393     21387     21386     21391     21394
     21388     21387     21386     21391     21389     21387     21386     21391
     21390     21387     21386     21391     21391     21386     21384     21410
     21391     21394     21397     21398     21391     21394     21397     21399
     21392     21391     21394     21395     21392     21391     21394     21396
     21392     21391     21394     21397     21393     21391     21394     21395
     21393     21391     21394     21396     21393     21391     21394     21397
     21394     21397     21399     21400     21394     21397     21399     21404
     21395     21394     21397     21398     21395     21394     21397     21399
     21396     21394     21397     21398     21396     21394     21397     21399
     21397     21399     21400     21401     21397     21399     21400     21402
     21397     21399     21400     21403     21397     21399     21404     21405
     21397     21399     21404     21406     21397     21399     21404     21407
     21398     21397     21399     21400     21398     21397     21399     21404
     21399     21404     21407     21408     21399     21404     21407     21409
     21400     21399     21404     21405     21400     21399     21404     21406
     21400     21399     21404     21407     21401     21400     21399     21404
     21402     21400     21399     21404     21403     21400     21399     21404
     21405     21404     21407     21408     21405     21404     21407     21409
     21406     21404     21407     21408     21406     21404     21407     21409
     21410     21416     21419     21420     21410     21416     21419     21421
     21410     21416     21419     21422     21411     21410     21412     21413
     21411     21410     21412     21414     21411     21410     21412     21415
     21411     21410     21416     21417     21411     21410     21416     21418
     21411     21410     21416     21419     21412     21410     21416     21417
     21412     21410     21416     21418     21412     21410     21416     21419
     21413     21412     21410     21416     21414     21412     21410     21416
     21415     21412     21410     21416     21416     21419     21422     21423
     21416     21419     21422     21424     21416     21419     21422     21425
     21417     21416     21419     21420     21417     21416     21419     21421
     21417     21416     21419     21422     21418     21416     21419     21420
     21418     21416     21419     21421     21418     21416     21419     21422
     21419     21422     21425     21426     21419     21422     21425     21427
     21419     21422     21425     21431     21420     21419     21422     21423
     21420     21419     21422     21424     21420     21419     21422     21425
     21421     21419     21422     21423     21421     21419     21422     21424
     21421     21419     21422     21425     21422     21425     21427     21428
     21422     21425     21427     21429     21422     21425     21427     21430
     21422     21425     21431     21432     21422     21425     21431     21433
     21422     21425     21431     21434     21423     21422     21425     21426
     21423     21422     21425     21427     21423     21422     21425     21431
     21424     21422     21425     21426     21424     21422     21425     21427
     21424     21422     21425     21431     21426     21425     21427     21428
     21426     21425     21427     21429     21426     21425     21427     21430
     21426     21425     21431     21432     21426     21425     21431     21433
     21426     21425     21431     21434     21427     21425     21431     21432
     21427     21425     21431     21433     21427     21425     21431     21434
     21428     21427     21425     21431     21429     21427     21425     21431
     21430     21427     21425     21431     21435     21439     21442     21443
     21435     21439     21442     21444     21435     21439     21442     21448
     21436     21435     21439     21440     21436     21435     21439     21441
     21436     21435     21439     21442     21437     21435     21439     21440
     21437     21435     21439     21441     21437     21435     21439     21442
     21438     21435     21439     21440     21438     21435     21439     21441
     21438     21435     21439     21442     21439     21442     21448     21445
     21440     21439     21442     21443     21440     21439     21442     21444
     21440     21439     21442     21448     21441     21439     21442     21443
     21441     21439     21442     21444     21441     21439     21442     21448
     21442     21448     21445     21446     21442     21448     21445     21447
     21442     21448     21445     21449     21443     21442     21448     21445
     21444     21442     21448     21445     21445     21449     21450     21451
     21445     21449     21450     21452     21445     21449     21450     21453
     21446     21445     21449     21450     21447     21445     21449     21450
     21448     21445     21449     21450     21449     21450     21453     21454
     21449     21450     21453     21455     21449     21450     21453     21461
     21450     21453     21455     21456     21450     21453     21461     21462
     21450     21453     21461     21463     21450     21453     21461     21464
     21451     21450     21453     21454     21451     21450     21453     21455
     21451     21450     21453     21461     21452     21450     21453     21454
     21452     21450     21453     21455     21452     21450     21453     21461
     21453     21455     21456     21457     21453     21455     21456     21458
     21453     21461     21464     21465     21454     21453     21455     21456
     21454     21453     21461     21462     21454     21453     21461     21463
     21454     21453     21461     21464     21455     21453     21461     21462
     21455     21453     21461     21463     21455     21453     21461     21464
     21455     21456     21458     21459     21455     21456     21458     21460
     21455     21456     21458     21470     21456     21455     21453     21461
     21456     21458     21470     21471     21456     21458     21470     21472
     21456     21458     21470     21473     21457     21456     21458     21459
     21457     21456     21458     21460     21457     21456     21458     21470
     21458     21470     21473     21474     21458     21470     21473     21475
     21458     21470     21473     21476     21459     21458     21470     21471
     21459     21458     21470     21472     21459     21458     21470     21473
     21460     21458     21470     21471     21460     21458     21470     21472
     21460     21458     21470     21473     21461     21464     21465     21466
     21461     21464     21465     21467     21462     21461     21464     21465
     21463     21461     21464     21465     21464     21465     21467     21468
     21464     21465     21467     21469     21464     21465     21467     21517
     21465     21467     21517     21518     21465     21467     21517     21519
     21465     21467     21517     21520     21466     21465     21467     21468
     21466     21465     21467     21469     21466     21465     21467     21517
     21467     21517     21520     21521     21467     21517     21520     21522
     21467     21517     21520     21523     21468     21467     21517     21518
     21468     21467     21517     21519     21468     21467     21517     21520
     21469     21467     21517     21518     21469     21467     21517     21519
     21469     21467     21517     21520     21470     21473     21476     21477
     21470     21473     21476     21478     21471     21470     21473     21474
     21471     21470     21473     21475     21471     21470     21473     21476
     21472     21470     21473     21474     21472     21470     21473     21475
     21472     21470     21473     21476     21473     21476     21478     21479
     21473     21476     21478     21480     21474     21473     21476     21477
     21474     21473     21476     21478     21475     21473     21476     21477
     21475     21473     21476     21478     21476     21478     21480     21481
     21476     21478     21480     21482     21476     21478     21480     21483
     21477     21476     21478     21479     21477     21476     21478     21480
     21478     21480     21483     21484     21478     21480     21483     21485
     21479     21478     21480     21481     21479     21478     21480     21482
     21479     21478     21480     21483     21480     21483     21485     21486
     21480     21483     21485     21487     21481     21480     21483     21484
     21481     21480     21483     21485     21482     21480     21483     21484
     21482     21480     21483     21485     21483     21485     21487     21488
     21483     21485     21487     21489     21483     21485     21487     21490
     21484     21483     21485     21486     21484     21483     21485     21487
     21485     21487     21490     21491     21485     21487     21490     21492
     21486     21485     21487     21488     21486     21485     21487     21489
     21486     21485     21487     21490     21487     21490     21492     21493
     21487     21490     21492     21494     21488     21487     21490     21491
     21488     21487     21490     21492     21489     21487     21490     21491
     21489     21487     21490     21492     21490     21492     21494     21495
     21490     21492     21494     21496     21490     21492     21494     21497
     21491     21490     21492     21493     21491     21490     21492     21494
     21492     21494     21497     21498     21492     21494     21497     21499
     21493     21492     21494     21495     21493     21492     21494     21496
     21493     21492     21494     21497     21494     21497     21499     21500
     21494     21497     21499     21501     21495     21494     21497     21498
     21495     21494     21497     21499     21496     21494     21497     21498
     21496     21494     21497     21499     21497     21499     21501     21502
     21497     21499     21501     21503     21497     21499     21501     21504
     21498     21497     21499     21500     21498     21497     21499     21501
     21499     21501     21504     21505     21499     21501     21504     21506
     21499     21501     21504     21507     21500     21499     21501     21502
     21500     21499     21501     21503     21500     21499     21501     21504
     21501     21504     21507     21508     21501     21504     21507     21509
     21501     21504     21507     21510     21502     21501     21504     21505
     21502     21501     21504     21506     21502     21501     21504     21507
     21503     21501     21504     21505     21503     21501     21504     21506
     21503     21501     21504     21507     21504     21507     21510     21511
     21504     21507     21510     21512     21504     21507     21510     21513
     21505     21504     21507     21508     21505     21504     21507     21509
     21505     21504     21507     21510     21506     21504     21507     21508
     21506     21504     21507     21509     21506     21504     21507     21510
     21507     21510     21513     21514     21507     21510     21513     21515
     21507     21510     21513     21516     21508     21507     21510     21511
     21508     21507     21510     21512     21508     21507     21510     21513
     21509     21507     21510     21511     21509     21507     21510     21512
     21509     21507     21510     21513     21511     21510     21513     21514
     21511     21510     21513     21515     21511     21510     21513     21516
     21512     21510     21513     21514     21512     21510     21513     21515
     21512     21510     21513     21516     21517     21520     21523     21524
     21517     21520     21523     21525     21517     21520     21523     21526
     21518     21517     21520     21521     21518     21517     21520     21522
     21518     21517     21520     21523     21519     21517     21520     21521
     21519     21517     21520     21522     21519     21517     21520     21523
     21520     21523     21526     21527     21520     21523     21526     21528
     21520     21523     21526     21529     21521     21520     21523     21524
     21521     21520     21523     21525     21521     21520     21523     21526
     21522     21520     21523     21524     21522     21520     21523     21525
     21522     21520     21523     21526     21523     21526     21529     21530
     21523     21526     21529     21531     21523     21526     21529     21532
     21524     21523     21526     21527     21524     21523     21526     21528
     21524     21523     21526     21529     21525     21523     21526     21527
     21525     21523     21526     21528     21525     21523     21526     21529
     21526     21529     21532     21533     21526     21529     21532     21534
     21526     21529     21532     21535     21527     21526     21529     21530
     21527     21526     21529     21531     21527     21526     21529     21532
     21528     21526     21529     21530     21528     21526     21529     21531
     21528     21526     21529     21532     21529     21532     21535     21536
     21529     21532     21535     21537     21529     21532     21535     21538
     21530     21529     21532     21533     21530     21529     21532     21534
     21530     21529     21532     21535     21531     21529     21532     21533
     21531     21529     21532     21534     21531     21529     21532     21535
     21532     21535     21538     21539     21532     21535     21538     21540
     21532     21535     21538     21541     21533     21532     21535     21536
     21533     21532     21535     21537     21533     21532     21535     21538
     21534     21532     21535     21536     21534     21532     21535     21537
     21534     21532     21535     21538     21535     21538     21541     21542
     21535     21538     21541     21543     21535     21538     21541     21544
     21536     21535     21538     21539     21536     21535     21538     21540
     21536     21535     21538     21541     21537     21535     21538     21539
     21537     21535     21538     21540     21537     21535     21538     21541
     21538     21541     21544     21545     21538     21541     21544     21546
     21538     21541     21544     21547     21539     21538     21541     21542
     21539     21538     21541     21543     21539     21538     21541     21544
     21540     21538     21541     21542     21540     21538     21541     21543
     21540     21538     21541     21544     21541     21544     21547     21548
     21541     21544     21547     21549     21541     21544     21547     21550
     21542     21541     21544     21545     21542     21541     21544     21546
     21542     21541     21544     21547     21543     21541     21544     21545
     21543     21541     21544     21546     21543     21541     21544     21547
     21544     21547     21550     21551     21544     21547     21550     21552
     21544     21547     21550     21553     21545     21544     21547     21548
     21545     21544     21547     21549     21545     21544     21547     21550
     21546     21544     21547     21548     21546     21544     21547     21549
     21546     21544     21547     21550     21547     21550     21553     21554
     21547     21550     21553     21555     21547     21550     21553     21556
     21548     21547     21550     21551     21548     21547     21550     21552
     21548     21547     21550     21553     21549     21547     21550     21551
     21549     21547     21550     21552     21549     21547     21550     21553
     21550     21553     21556     21557     21550     21553     21556     21558
     21550     21553     21556     21559     21551     21550     21553     21554
     21551     21550     21553     21555     21551     21550     21553     21556
     21552     21550     21553     21554     21552     21550     21553     21555
     21552     21550     21553     21556     21553     21556     21559     21560
     21553     21556     21559     21561     21553     21556     21559     21562
     21554     21553     21556     21557     21554     21553     21556     21558
     21554     21553     21556     21559     21555     21553     21556     21557
     21555     21553     21556     21558     21555     21553     21556     21559
     21556     21559     21562     21563     21556     21559     21562     21564
     21556     21559     21562     21565     21557     21556     21559     21560
     21557     21556     21559     21561     21557     21556     21559     21562
     21558     21556     21559     21560     21558     21556     21559     21561
     21558     21556     21559     21562     21560     21559     21562     21563
     21560     21559     21562     21564     21560     21559     21562     21565
     21561     21559     21562     21563     21561     21559     21562     21564
     21561     21559     21562     21565     21566     21570     21573     21574
     21566     21570     21573     21575     21566     21570     21573     21579
     21567     21566     21570     21571     21567     21566     21570     21572
     21567     21566     21570     21573     21568     21566     21570     21571
     21568     21566     21570     21572     21568     21566     21570     21573
     21569     21566     21570     21571     21569     21566     21570     21572
     21569     21566     21570     21573     21570     21573     21579     21576
     21571     21570     21573     21574     21571     21570     21573     21575
     21571     21570     21573     21579     21572     21570     21573     21574
     21572     21570     21573     21575     21572     21570     21573     21579
     21573     21579     21576     21577     21573     21579     21576     21578
     21573     21579     21576     21580     21574     21573     21579     21576
     21575     21573     21579     21576     21576     21580     21581     21582
     21576     21580     21581     21583     21576     21580     21581     21584
     21577     21576     21580     21581     21578     21576     21580     21581
     21579     21576     21580     21581     21580     21581     21584     21585
     21580     21581     21584     21586     21580     21581     21584     21592
     21581     21584     21586     21587     21581     21584     21592     21593
     21581     21584     21592     21594     21581     21584     21592     21595
     21582     21581     21584     21585     21582     21581     21584     21586
     21582     21581     21584     21592     21583     21581     21584     21585
     21583     21581     21584     21586     21583     21581     21584     21592
     21584     21586     21587     21588     21584     21586     21587     21589
     21584     21592     21595     21596     21585     21584     21586     21587
     21585     21584     21592     21593     21585     21584     21592     21594
     21585     21584     21592     21595     21586     21584     21592     21593
     21586     21584     21592     21594     21586     21584     21592     21595
     21586     21587     21589     21590     21586     21587     21589     21591
     21586     21587     21589     21601     21587     21586     21584     21592
     21587     21589     21601     21602     21587     21589     21601     21603
     21587     21589     21601     21604     21588     21587     21589     21590
     21588     21587     21589     21591     21588     21587     21589     21601
     21589     21601     21604     21605     21589     21601     21604     21606
     21589     21601     21604     21607     21590     21589     21601     21602
     21590     21589     21601     21603     21590     21589     21601     21604
     21591     21589     21601     21602     21591     21589     21601     21603
     21591     21589     21601     21604     21592     21595     21596     21597
     21592     21595     21596     21598     21593     21592     21595     21596
     21594     21592     21595     21596     21595     21596     21598     21599
     21595     21596     21598     21600     21595     21596     21598     21648
     21596     21598     21648     21649     21596     21598     21648     21650
     21596     21598     21648     21651     21597     21596     21598     21599
     21597     21596     21598     21600     21597     21596     21598     21648
     21598     21648     21651     21652     21598     21648     21651     21653
     21598     21648     21651     21654     21599     21598     21648     21649
     21599     21598     21648     21650     21599     21598     21648     21651
     21600     21598     21648     21649     21600     21598     21648     21650
     21600     21598     21648     21651     21601     21604     21607     21608
     21601     21604     21607     21609     21602     21601     21604     21605
     21602     21601     21604     21606     21602     21601     21604     21607
     21603     21601     21604     21605     21603     21601     21604     21606
     21603     21601     21604     21607     21604     21607     21609     21610
     21604     21607     21609     21611     21605     21604     21607     21608
     21605     21604     21607     21609     21606     21604     21607     21608
     21606     21604     21607     21609     21607     21609     21611     21612
     21607     21609     21611     21613     21607     21609     21611     21614
     21608     21607     21609     21610     21608     21607     21609     21611
     21609     21611     21614     21615     21609     21611     21614     21616
     21610     21609     21611     21612     21610     21609     21611     21613
     21610     21609     21611     21614     21611     21614     21616     21617
     21611     21614     21616     21618     21612     21611     21614     21615
     21612     21611     21614     21616     21613     21611     21614     21615
     21613     21611     21614     21616     21614     21616     21618     21619
     21614     21616     21618     21620     21614     21616     21618     21621
     21615     21614     21616     21617     21615     21614     21616     21618
     21616     21618     21621     21622     21616     21618     21621     21623
     21617     21616     21618     21619     21617     21616     21618     21620
     21617     21616     21618     21621     21618     21621     21623     21624
     21618     21621     21623     21625     21619     21618     21621     21622
     21619     21618     21621     21623     21620     21618     21621     21622
     21620     21618     21621     21623     21621     21623     21625     21626
     21621     21623     21625     21627     21621     21623     21625     21628
     21622     21621     21623     21624     21622     21621     21623     21625
     21623     21625     21628     21629     21623     21625     21628     21630
     21624     21623     21625     21626     21624     21623     21625     21627
     21624     21623     21625     21628     21625     21628     21630     21631
     21625     21628     21630     21632     21626     21625     21628     21629
     21626     21625     21628     21630     21627     21625     21628     21629
     21627     21625     21628     21630     21628     21630     21632     21633
     21628     21630     21632     21634     21628     21630     21632     21635
     21629     21628     21630     21631     21629     21628     21630     21632
     21630     21632     21635     21636     21630     21632     21635     21637
     21630     21632     21635     21638     21631     21630     21632     21633
     21631     21630     21632     21634     21631     21630     21632     21635
     21632     21635     21638     21639     21632     21635     21638     21640
     21632     21635     21638     21641     21633     21632     21635     21636
     21633     21632     21635     21637     21633     21632     21635     21638
     21634     21632     21635     21636     21634     21632     21635     21637
     21634     21632     21635     21638     21635     21638     21641     21642
     21635     21638     21641     21643     21635     21638     21641     21644
     21636     21635     21638     21639     21636     21635     21638     21640
     21636     21635     21638     21641     21637     21635     21638     21639
     21637     21635     21638     21640     21637     21635     21638     21641
     21638     21641     21644     21645     21638     21641     21644     21646
     21638     21641     21644     21647     21639     21638     21641     21642
     21639     21638     21641     21643     21639     21638     21641     21644
     21640     21638     21641     21642     21640     21638     21641     21643
     21640     21638     21641     21644     21642     21641     21644     21645
     21642     21641     21644     21646     21642     21641     21644     21647
     21643     21641     21644     21645     21643     21641     21644     21646
     21643     21641     21644     21647     21648     21651     21654     21655
     21648     21651     21654     21656     21648     21651     21654     21657
     21649     21648     21651     21652     21649     21648     21651     21653
     21649     21648     21651     21654     21650     21648     21651     21652
     21650     21648     21651     21653     21650     21648     21651     21654
     21651     21654     21657     21658     21651     21654     21657     21659
     21651     21654     21657     21660     21652     21651     21654     21655
     21652     21651     21654     21656     21652     21651     21654     21657
     21653     21651     21654     21655     21653     21651     21654     21656
     21653     21651     21654     21657     21654     21657     21660     21661
     21654     21657     21660     21662     21654     21657     21660     21663
     21655     21654     21657     21658     21655     21654     21657     21659
     21655     21654     21657     21660     21656     21654     21657     21658
     21656     21654     21657     21659     21656     21654     21657     21660
     21657     21660     21663     21664     21657     21660     21663     21665
     21657     21660     21663     21666     21658     21657     21660     21661
     21658     21657     21660     21662     21658     21657     21660     21663
     21659     21657     21660     21661     21659     21657     21660     21662
     21659     21657     21660     21663     21660     21663     21666     21667
     21660     21663     21666     21668     21660     21663     21666     21669
     21661     21660     21663     21664     21661     21660     21663     21665
     21661     21660     21663     21666     21662     21660     21663     21664
     21662     21660     21663     21665     21662     21660     21663     21666
     21663     21666     21669     21670     21663     21666     21669     21671
     21663     21666     21669     21672     21664     21663     21666     21667
     21664     21663     21666     21668     21664     21663     21666     21669
     21665     21663     21666     21667     21665     21663     21666     21668
     21665     21663     21666     21669     21666     21669     21672     21673
     21666     21669     21672     21674     21666     21669     21672     21675
     21667     21666     21669     21670     21667     21666     21669     21671
     21667     21666     21669     21672     21668     21666     21669     21670
     21668     21666     21669     21671     21668     21666     21669     21672
     21669     21672     21675     21676     21669     21672     21675     21677
     21669     21672     21675     21678     21670     21669     21672     21673
     21670     21669     21672     21674     21670     21669     21672     21675
     21671     21669     21672     21673     21671     21669     21672     21674
     21671     21669     21672     21675     21672     21675     21678     21679
     21672     21675     21678     21680     21672     21675     21678     21681
     21673     21672     21675     21676     21673     21672     21675     21677
     21673     21672     21675     21678     21674     21672     21675     21676
     21674     21672     21675     21677     21674     21672     21675     21678
     21675     21678     21681     21682     21675     21678     21681     21683
     21675     21678     21681     21684     21676     21675     21678     21679
     21676     21675     21678     21680     21676     21675     21678     21681
     21677     21675     21678     21679     21677     21675     21678     21680
     21677     21675     21678     21681     21678     21681     21684     21685
     21678     21681     21684     21686     21678     21681     21684     21687
     21679     21678     21681     21682     21679     21678     21681     21683
     21679     21678     21681     21684     21680     21678     21681     21682
     21680     21678     21681     21683     21680     21678     21681     21684
     21681     21684     21687     21688     21681     21684     21687     21689
     21681     21684     21687     21690     21682     21681     21684     21685
     21682     21681     21684     21686     21682     21681     21684     21687
     21683     21681     21684     21685     21683     21681     21684     21686
     21683     21681     21684     21687     21684     21687     21690     21691
     21684     21687     21690     21692     21684     21687     21690     21693
     21685     21684     21687     21688     21685     21684     21687     21689
     21685     21684     21687     21690     21686     21684     21687     21688
     21686     21684     21687     21689     21686     21684     21687     21690
     21687     21690     21693     21694     21687     21690     21693     21695
     21687     21690     21693     21696     21688     21687     21690     21691
     21688     21687     21690     21692     21688     21687     21690     21693
     21689     21687     21690     21691     21689     21687     21690     21692
     21689     21687     21690     21693     21691     21690     21693     21694
     21691     21690     21693     21695     21691     21690     21693     21696
     21692     21690     21693     21694     21692     21690     21693     21695
     21692     21690     21693     21696     21697     21701     21704     21705
     21697     21701     21704     21735     21697     21743     21740     21735
     21697     21743     21740     21741     21697     21743     21740     21742
     21698     21697     21699     21700     21698     21697     21701     21702
     21698     21697     21701     21703     21698     21697     21701     21704
     21698     21697     21743     21740     21698     21697     21743     21744
     21698     21697     21743     21745     21699     21697     21701     21702
     21699     21697     21701     21703     21699     21697     21701     21704
     21699     21697     21743     21740     21699     21697     21743     21744
     21699     21697     21743     21745     21700     21699     21697     21701
     21700     21699     21697     21743     21701     21697     21743     21740
     21701     21697     21743     21744     21701     21697     21743     21745
     21701     21704     21705     21706     21701     21704     21705     21707
     21701     21704     21735     21733     21701     21704     21735     21736
     21701     21704     21735     21740     21702     21701     21697     21743
     21702     21701     21704     21705     21702     21701     21704     21735
     21703     21701     21697     21743     21703     21701     21704     21705
     21703     21701     21704     21735     21704     21701     21697     21743
     21704     21705     21707     21708     21704     21705     21707     21709
     21704     21705     21707     21710     21704     21735     21733     21710
     21704     21735     21733     21730     21704     21735     21733     21734
     21704     21735     21736     21737     21704     21735     21736     21738
     21704     21735     21736     21739     21704     21735     21740     21741
     21704     21735     21740     21742     21704     21735     21740     21743
     21705     21704     21735     21733     21705     21704     21735     21736
     21705     21704     21735     21740     21705     21707     21710     21711
     21705     21707     21710     21712     21705     21707     21710     21733
     21706     21705     21704     21735     21706     21705     21707     21708
     21706     21705     21707     21709     21706     21705     21707     21710
     21707     21705     21704     21735     21707     21710     21712     21713
     21707     21710     21712     21714     21707     21710     21712     21722
     21707     21710     21733     21730     21707     21710     21733     21734
     21707     21710     21733     21735     21708     21707     21710     21711
     21708     21707     21710     21712     21708     21707     21710     21733
     21709     21707     21710     21711     21709     21707     21710     21712
     21709     21707     21710     21733     21710     21712     21714     21715
     21710     21712     21714     21716     21710     21712     21714     21717
     21710     21712     21722     21720     21710     21712     21722     21723
     21710     21712     21722     21727     21710     21733     21730     21727
     21710     21733     21730     21731     21710     21733     21730     21732
     21710     21733     21735     21736     21710     21733     21735     21740
     21711     21710     21712     21713     21711     21710     21712     21714
     21711     21710     21712     21722     21711     21710     21733     21730
     21711     21710     21733     21734     21711     21710     21733     21735
     21712     21710     21733     21730     21712     21710     21733     21734
     21712     21710     21733     21735     21712     21714     21717     21718
     21712     21714     21717     21719     21712     21714     21717     21720
     21712     21722     21720     21717     21712     21722     21720     21721
     21712     21722     21720     21746     21712     21722     21723     21724
     21712     21722     21723     21725     21712     21722     21723     21726
     21712     21722     21727     21728     21712     21722     21727     21729
     21712     21722     21727     21730     21713     21712     21710     21733
     21713     21712     21714     21715     21713     21712     21714     21716
     21713     21712     21714     21717     21713     21712     21722     21720
     21713     21712     21722     21723     21713     21712     21722     21727
     21714     21712     21710     21733     21714     21712     21722     21720
     21714     21712     21722     21723     21714     21712     21722     21727
     21714     21717     21720     21721     21714     21717     21720     21722
     21714     21717     21720     21746     21715     21714     21712     21722
     21715     21714     21717     21718     21715     21714     21717     21719
     21715     21714     21717     21720     21716     21714     21712     21722
     21716     21714     21717     21718     21716     21714     21717     21719
     21716     21714     21717     21720     21717     21714     21712     21722
     21717     21720     21722     21723     21717     21720     21722     21727
     21717     21720     21746     21747     21717     21720     21746     21748
     21717     21720     21746     21752     21718     21717     21720     21721
     21718     21717     21720     21722     21718     21717     21720     21746
     21719     21717     21720     21721     21719     21717     21720     21722
     21719     21717     21720     21746     21720     21722     21723     21724
     21720     21722     21723     21725     21720     21722     21723     21726
     21720     21722     21727     21728     21720     21722     21727     21729
     21720     21722     21727     21730     21720     21746     21748     21749
     21720     21746     21748     21750     21720     21746     21748     21751
     21720     21746     21752     21753     21720     21746     21752     21754
     21720     21746     21752     21755     21721     21720     21722     21723
     21721     21720     21722     21727     21721     21720     21746     21747
     21721     21720     21746     21748     21721     21720     21746     21752
     21722     21712     21710     21733     21722     21720     21746     21747
     21722     21720     21746     21748     21722     21720     21746     21752
     21722     21727     21730     21731     21722     21727     21730     21732
     21722     21727     21730     21733     21723     21722     21720     21746
     21723     21722     21727     21728     21723     21722     21727     21729
     21723     21722     21727     21730     21724     21723     21722     21727
     21725     21723     21722     21727     21726     21723     21722     21727
     21727     21722     21720     21746     21727     21730     21733     21734
     21727     21730     21733     21735     21728     21727     21730     21731
     21728     21727     21730     21732     21728     21727     21730     21733
     21729     21727     21730     21731     21729     21727     21730     21732
     21729     21727     21730     21733     21730     21733     21735     21736
     21730     21733     21735     21740     21731     21730     21733     21734
     21731     21730     21733     21735     21732     21730     21733     21734
     21732     21730     21733     21735     21733     21735     21736     21737
     21733     21735     21736     21738     21733     21735     21736     21739
     21733     21735     21740     21741     21733     21735     21740     21742
     21733     21735     21740     21743     21734     21733     21735     21736
     21734     21733     21735     21740     21735     21740     21743     21744
     21735     21740     21743     21745     21736     21735     21740     21741
     21736     21735     21740     21742     21736     21735     21740     21743
     21737     21736     21735     21740     21738     21736     21735     21740
     21739     21736     21735     21740     21741     21740     21743     21744
     21741     21740     21743     21745     21742     21740     21743     21744
     21742     21740     21743     21745     21746     21752     21755     21756
     21746     21752     21755     21757     21746     21752     21755     21758
     21747     21746     21748     21749     21747     21746     21748     21750
     21747     21746     21748     21751     21747     21746     21752     21753
     21747     21746     21752     21754     21747     21746     21752     21755
     21748     21746     21752     21753     21748     21746     21752     21754
     21748     21746     21752     21755     21749     21748     21746     21752
     21750     21748     21746     21752     21751     21748     21746     21752
     21752     21755     21758     21759     21752     21755     21758     21760
     21752     21755     21758     21761     21753     21752     21755     21756
     21753     21752     21755     21757     21753     21752     21755     21758
     21754     21752     21755     21756     21754     21752     21755     21757
     21754     21752     21755     21758     21755     21758     21761     21762
     21755     21758     21761     21763     21755     21758     21761     21767
     21756     21755     21758     21759     21756     21755     21758     21760
     21756     21755     21758     21761     21757     21755     21758     21759
     21757     21755     21758     21760     21757     21755     21758     21761
     21758     21761     21763     21764     21758     21761     21763     21765
     21758     21761     21763     21766     21758     21761     21767     21768
     21758     21761     21767     21769     21758     21761     21767     21770
     21759     21758     21761     21762     21759     21758     21761     21763
     21759     21758     21761     21767     21760     21758     21761     21762
     21760     21758     21761     21763     21760     21758     21761     21767
     21762     21761     21763     21764     21762     21761     21763     21765
     21762     21761     21763     21766     21762     21761     21767     21768
     21762     21761     21767     21769     21762     21761     21767     21770
     21763     21761     21767     21768     21763     21761     21767     21769
     21763     21761     21767     21770     21764     21763     21761     21767
     21765     21763     21761     21767     21766     21763     21761     21767
     21771     21784     21787     21788     21771     21784     21787     21789
     21771     21784     21787     21794     21772     21771     21776     21777
     21772     21771     21776     21778     21772     21771     21776     21779
     21772     21771     21780     21781     21772     21771     21780     21782
     21772     21771     21780     21783     21772     21771     21784     21785
     21772     21771     21784     21786     21772     21771     21784     21787
     21773     21772     21771     21776     21773     21772     21771     21780
     21773     21772     21771     21784     21774     21772     21771     21776
     21774     21772     21771     21780     21774     21772     21771     21784
     21775     21772     21771     21776     21775     21772     21771     21780
     21775     21772     21771     21784     21776     21771     21780     21781
     21776     21771     21780     21782     21776     21771     21780     21783
     21776     21771     21784     21785     21776     21771     21784     21786
     21776     21771     21784     21787     21777     21776     21771     21780
     21777     21776     21771     21784     21778     21776     21771     21780
     21778     21776     21771     21784     21779     21776     21771     21780
     21779     21776     21771     21784     21780     21771     21784     21785
     21780     21771     21784     21786     21780     21771     21784     21787
     21781     21780     21771     21784     21782     21780     21771     21784
     21783     21780     21771     21784     21784     21787     21794     21790
     21785     21784     21787     21788     21785     21784     21787     21789
     21785     21784     21787     21794     21786     21784     21787     21788
     21786     21784     21787     21789     21786     21784     21787     21794
     21787     21794     21790     21791     21787     21794     21790     21792
     21787     21794     21790     21793     21788     21787     21794     21790
     21789     21787     21794     21790     21790     21793     21795     21796
     21790     21793     21795     21797     21790     21793     21795     21800
     21791     21790     21793     21795     21792     21790     21793     21795
     21793     21795     21800     21798     21793     21795     21800     21801
     21793     21795     21800     21802     21794     21790     21793     21795
     21795     21800     21798     21799     21795     21800     21798     21850
     21795     21800     21802     21803     21795     21800     21802     21804
     21795     21800     21802     21806     21796     21795     21800     21798
     21796     21795     21800     21801     21796     21795     21800     21802
     21797     21795     21800     21798     21797     21795     21800     21801
     21797     21795     21800     21802     21798     21800     21802     21803
     21798     21800     21802     21804     21798     21800     21802     21806
     21798     21850     21852     21853     21798     21850     21852     21854
     21798     21850     21852     21855     21799     21798     21800     21801
     21799     21798     21800     21802     21799     21798     21850     21851
     21799     21798     21850     21852     21800     21798     21850     21851
     21800     21798     21850     21852     21800     21802     21804     21805
     21800     21802     21806     21807     21800     21802     21806     21808
     21801     21800     21798     21850     21801     21800     21802     21803
     21801     21800     21802     21804     21801     21800     21802     21806
     21802     21800     21798     21850     21802     21806     21808     21809
     21802     21806     21808     21810     21803     21802     21804     21805
     21803     21802     21806     21807     21803     21802     21806     21808
     21804     21802     21806     21807     21804     21802     21806     21808
     21805     21804     21802     21806     21806     21808     21810     21811
     21806     21808     21810     21812     21806     21808     21810     21813
     21807     21806     21808     21809     21807     21806     21808     21810
     21808     21810     21813     21814     21808     21810     21813     21815
     21808     21810     21813     21816     21809     21808     21810     21811
     21809     21808     21810     21812     21809     21808     21810     21813
     21810     21813     21816     21817     21810     21813     21816     21818
     21810     21813     21816     21819     21811     21810     21813     21814
     21811     21810     21813     21815     21811     21810     21813     21816
     21812     21810     21813     21814     21812     21810     21813     21815
     21812     21810     21813     21816     21813     21816     21819     21820
     21813     21816     21819     21821     21813     21816     21819     21822
     21814     21813     21816     21817     21814     21813     21816     21818
     21814     21813     21816     21819     21815     21813     21816     21817
     21815     21813     21816     21818     21815     21813     21816     21819
     21816     21819     21822     21823     21816     21819     21822     21824
     21816     21819     21822     21825     21817     21816     21819     21820
     21817     21816     21819     21821     21817     21816     21819     21822
     21818     21816     21819     21820     21818     21816     21819     21821
     21818     21816     21819     21822     21819     21822     21825     21826
     21819     21822     21825     21827     21819     21822     21825     21828
     21820     21819     21822     21823     21820     21819     21822     21824
     21820     21819     21822     21825     21821     21819     21822     21823
     21821     21819     21822     21824     21821     21819     21822     21825
     21822     21825     21828     21829     21822     21825     21828     21830
     21822     21825     21828     21831     21823     21822     21825     21826
     21823     21822     21825     21827     21823     21822     21825     21828
     21824     21822     21825     21826     21824     21822     21825     21827
     21824     21822     21825     21828     21825     21828     21831     21832
     21825     21828     21831     21833     21825     21828     21831     21834
     21826     21825     21828     21829     21826     21825     21828     21830
     21826     21825     21828     21831     21827     21825     21828     21829
     21827     21825     21828     21830     21827     21825     21828     21831
     21828     21831     21834     21835     21828     21831     21834     21836
     21828     21831     21834     21837     21829     21828     21831     21832
     21829     21828     21831     21833     21829     21828     21831     21834
     21830     21828     21831     21832     21830     21828     21831     21833
     21830     21828     21831     21834     21831     21834     21837     21838
     21831     21834     21837     21839     21831     21834     21837     21840
     21832     21831     21834     21835     21832     21831     21834     21836
     21832     21831     21834     21837     21833     21831     21834     21835
     21833     21831     21834     21836     21833     21831     21834     21837
     21834     21837     21840     21841     21834     21837     21840     21842
     21834     21837     21840     21843     21835     21834     21837     21838
     21835     21834     21837     21839     21835     21834     21837     21840
     21836     21834     21837     21838     21836     21834     21837     21839
     21836     21834     21837     21840     21837     21840     21843     21844
     21837     21840     21843     21845     21837     21840     21843     21846
     21838     21837     21840     21841     21838     21837     21840     21842
     21838     21837     21840     21843     21839     21837     21840     21841
     21839     21837     21840     21842     21839     21837     21840     21843
     21840     21843     21846     21847     21840     21843     21846     21848
     21840     21843     21846     21849     21841     21840     21843     21844
     21841     21840     21843     21845     21841     21840     21843     21846
     21842     21840     21843     21844     21842     21840     21843     21845
     21842     21840     21843     21846     21844     21843     21846     21847
     21844     21843     21846     21848     21844     21843     21846     21849
     21845     21843     21846     21847     21845     21843     21846     21848
     21845     21843     21846     21849     21850     21852     21855     21856
     21850     21852     21855     21857     21850     21852     21855     21858
     21851     21850     21852     21853     21851     21850     21852     21854
     21851     21850     21852     21855     21852     21855     21858     21859
     21852     21855     21858     21860     21852     21855     21858     21861
     21853     21852     21855     21856     21853     21852     21855     21857
     21853     21852     21855     21858     21854     21852     21855     21856
     21854     21852     21855     21857     21854     21852     21855     21858
     21855     21858     21861     21862     21855     21858     21861     21863
     21855     21858     21861     21864     21856     21855     21858     21859
     21856     21855     21858     21860     21856     21855     21858     21861
     21857     21855     21858     21859     21857     21855     21858     21860
     21857     21855     21858     21861     21858     21861     21864     21865
     21858     21861     21864     21866     21858     21861     21864     21867
     21859     21858     21861     21862     21859     21858     21861     21863
     21859     21858     21861     21864     21860     21858     21861     21862
     21860     21858     21861     21863     21860     21858     21861     21864
     21861     21864     21867     21868     21861     21864     21867     21869
     21861     21864     21867     21870     21862     21861     21864     21865
     21862     21861     21864     21866     21862     21861     21864     21867
     21863     21861     21864     21865     21863     21861     21864     21866
     21863     21861     21864     21867     21864     21867     21870     21871
     21864     21867     21870     21872     21864     21867     21870     21873
     21865     21864     21867     21868     21865     21864     21867     21869
     21865     21864     21867     21870     21866     21864     21867     21868
     21866     21864     21867     21869     21866     21864     21867     21870
     21867     21870     21873     21874     21867     21870     21873     21875
     21868     21867     21870     21871     21868     21867     21870     21872
     21868     21867     21870     21873     21869     21867     21870     21871
     21869     21867     21870     21872     21869     21867     21870     21873
     21870     21873     21875     21876     21870     21873     21875     21877
     21871     21870     21873     21874     21871     21870     21873     21875
     21872     21870     21873     21874     21872     21870     21873     21875
     21873     21875     21877     21878     21873     21875     21877     21879
     21873     21875     21877     21880     21874     21873     21875     21876
     21874     21873     21875     21877     21875     21877     21880     21881
     21875     21877     21880     21882     21875     21877     21880     21883
     21876     21875     21877     21878     21876     21875     21877     21879
     21876     21875     21877     21880     21877     21880     21883     21884
     21877     21880     21883     21885     21877     21880     21883     21886
     21878     21877     21880     21881     21878     21877     21880     21882
     21878     21877     21880     21883     21879     21877     21880     21881
     21879     21877     21880     21882     21879     21877     21880     21883
     21880     21883     21886     21887     21880     21883     21886     21888
     21880     21883     21886     21889     21881     21880     21883     21884
     21881     21880     21883     21885     21881     21880     21883     21886
     21882     21880     21883     21884     21882     21880     21883     21885
     21882     21880     21883     21886     21883     21886     21889     21890
     21883     21886     21889     21891     21883     21886     21889     21892
     21884     21883     21886     21887     21884     21883     21886     21888
     21884     21883     21886     21889     21885     21883     21886     21887
     21885     21883     21886     21888     21885     21883     21886     21889
     21886     21889     21892     21893     21886     21889     21892     21894
     21886     21889     21892     21895     21887     21886     21889     21890
     21887     21886     21889     21891     21887     21886     21889     21892
     21888     21886     21889     21890     21888     21886     21889     21891
     21888     21886     21889     21892     21889     21892     21895     21896
     21889     21892     21895     21897     21889     21892     21895     21898
     21890     21889     21892     21893     21890     21889     21892     21894
     21890     21889     21892     21895     21891     21889     21892     21893
     21891     21889     21892     21894     21891     21889     21892     21895
     21892     21895     21898     21899     21892     21895     21898     21900
     21892     21895     21898     21901     21893     21892     21895     21896
     21893     21892     21895     21897     21893     21892     21895     21898
     21894     21892     21895     21896     21894     21892     21895     21897
     21894     21892     21895     21898     21896     21895     21898     21899
     21896     21895     21898     21900     21896     21895     21898     21901
     21897     21895     21898     21899     21897     21895     21898     21900
     21897     21895     21898     21901     21902     21906     21909     21910
     21902     21906     21909     21940     21902     21948     21945     21940
     21902     21948     21945     21946     21902     21948     21945     21947
     21903     21902     21904     21905     21903     21902     21906     21907
     21903     21902     21906     21908     21903     21902     21906     21909
     21903     21902     21948     21945     21903     21902     21948     21949
     21903     21902     21948     21950     21904     21902     21906     21907
     21904     21902     21906     21908     21904     21902     21906     21909
     21904     21902     21948     21945     21904     21902     21948     21949
     21904     21902     21948     21950     21905     21904     21902     21906
     21905     21904     21902     21948     21906     21902     21948     21945
     21906     21902     21948     21949     21906     21902     21948     21950
     21906     21909     21910     21911     21906     21909     21910     21912
     21906     21909     21940     21938     21906     21909     21940     21941
     21906     21909     21940     21945     21907     21906     21902     21948
     21907     21906     21909     21910     21907     21906     21909     21940
     21908     21906     21902     21948     21908     21906     21909     21910
     21908     21906     21909     21940     21909     21906     21902     21948
     21909     21910     21912     21913     21909     21910     21912     21914
     21909     21910     21912     21915     21909     21940     21938     21915
     21909     21940     21938     21935     21909     21940     21938     21939
     21909     21940     21941     21942     21909     21940     21941     21943
     21909     21940     21941     21944     21909     21940     21945     21946
     21909     21940     21945     21947     21909     21940     21945     21948
     21910     21909     21940     21938     21910     21909     21940     21941
     21910     21909     21940     21945     21910     21912     21915     21916
     21910     21912     21915     21917     21910     21912     21915     21938
     21911     21910     21909     21940     21911     21910     21912     21913
     21911     21910     21912     21914     21911     21910     21912     21915
     21912     21910     21909     21940     21912     21915     21917     21918
     21912     21915     21917     21919     21912     21915     21917     21927
     21912     21915     21938     21935     21912     21915     21938     21939
     21912     21915     21938     21940     21913     21912     21915     21916
     21913     21912     21915     21917     21913     21912     21915     21938
     21914     21912     21915     21916     21914     21912     21915     21917
     21914     21912     21915     21938     21915     21917     21919     21920
     21915     21917     21919     21921     21915     21917     21919     21922
     21915     21917     21927     21925     21915     21917     21927     21928
     21915     21917     21927     21932     21915     21938     21935     21932
     21915     21938     21935     21936     21915     21938     21935     21937
     21915     21938     21940     21941     21915     21938     21940     21945
     21916     21915     21917     21918     21916     21915     21917     21919
     21916     21915     21917     21927     21916     21915     21938     21935
     21916     21915     21938     21939     21916     21915     21938     21940
     21917     21915     21938     21935     21917     21915     21938     21939
     21917     21915     21938     21940     21917     21919     21922     21923
     21917     21919     21922     21924     21917     21919     21922     21925
     21917     21927     21925     21922     21917     21927     21925     21926
     21917     21927     21925     21951     21917     21927     21928     21929
     21917     21927     21928     21930     21917     21927     21928     21931
     21917     21927     21932     21933     21917     21927     21932     21934
     21917     21927     21932     21935     21918     21917     21915     21938
     21918     21917     21919     21920     21918     21917     21919     21921
     21918     21917     21919     21922     21918     21917     21927     21925
     21918     21917     21927     21928     21918     21917     21927     21932
     21919     21917     21915     21938     21919     21917     21927     21925
     21919     21917     21927     21928     21919     21917     21927     21932
     21919     21922     21925     21926     21919     21922     21925     21927
     21919     21922     21925     21951     21920     21919     21917     21927
     21920     21919     21922     21923     21920     21919     21922     21924
     21920     21919     21922     21925     21921     21919     21917     21927
     21921     21919     21922     21923     21921     21919     21922     21924
     21921     21919     21922     21925     21922     21919     21917     21927
     21922     21925     21927     21928     21922     21925     21927     21932
     21922     21925     21951     21952     21922     21925     21951     21953
     21922     21925     21951     21957     21923     21922     21925     21926
     21923     21922     21925     21927     21923     21922     21925     21951
     21924     21922     21925     21926     21924     21922     21925     21927
     21924     21922     21925     21951     21925     21927     21928     21929
     21925     21927     21928     21930     21925     21927     21928     21931
     21925     21927     21932     21933     21925     21927     21932     21934
     21925     21927     21932     21935     21925     21951     21953     21954
     21925     21951     21953     21955     21925     21951     21953     21956
     21925     21951     21957     21958     21925     21951     21957     21959
     21925     21951     21957     21960     21926     21925     21927     21928
     21926     21925     21927     21932     21926     21925     21951     21952
     21926     21925     21951     21953     21926     21925     21951     21957
     21927     21917     21915     21938     21927     21925     21951     21952
     21927     21925     21951     21953     21927     21925     21951     21957
     21927     21932     21935     21936     21927     21932     21935     21937
     21927     21932     21935     21938     21928     21927     21925     21951
     21928     21927     21932     21933     21928     21927     21932     21934
     21928     21927     21932     21935     21929     21928     21927     21932
     21930     21928     21927     21932     21931     21928     21927     21932
     21932     21927     21925     21951     21932     21935     21938     21939
     21932     21935     21938     21940     21933     21932     21935     21936
     21933     21932     21935     21937     21933     21932     21935     21938
     21934     21932     21935     21936     21934     21932     21935     21937
     21934     21932     21935     21938     21935     21938     21940     21941
     21935     21938     21940     21945     21936     21935     21938     21939
     21936     21935     21938     21940     21937     21935     21938     21939
     21937     21935     21938     21940     21938     21940     21941     21942
     21938     21940     21941     21943     21938     21940     21941     21944
     21938     21940     21945     21946     21938     21940     21945     21947
     21938     21940     21945     21948     21939     21938     21940     21941
     21939     21938     21940     21945     21940     21945     21948     21949
     21940     21945     21948     21950     21941     21940     21945     21946
     21941     21940     21945     21947     21941     21940     21945     21948
     21942     21941     21940     21945     21943     21941     21940     21945
     21944     21941     21940     21945     21946     21945     21948     21949
     21946     21945     21948     21950     21947     21945     21948     21949
     21947     21945     21948     21950     21951     21957     21960     21961
     21951     21957     21960     21962     21951     21957     21960     21963
     21952     21951     21953     21954     21952     21951     21953     21955
     21952     21951     21953     21956     21952     21951     21957     21958
     21952     21951     21957     21959     21952     21951     21957     21960
     21953     21951     21957     21958     21953     21951     21957     21959
     21953     21951     21957     21960     21954     21953     21951     21957
     21955     21953     21951     21957     21956     21953     21951     21957
     21957     21960     21963     21964     21957     21960     21963     21965
     21957     21960     21963     21966     21958     21957     21960     21961
     21958     21957     21960     21962     21958     21957     21960     21963
     21959     21957     21960     21961     21959     21957     21960     21962
     21959     21957     21960     21963     21960     21963     21966     21967
     21960     21963     21966     21968     21960     21963     21966     21972
     21961     21960     21963     21964     21961     21960     21963     21965
     21961     21960     21963     21966     21962     21960     21963     21964
     21962     21960     21963     21965     21962     21960     21963     21966
     21963     21966     21968     21969     21963     21966     21968     21970
     21963     21966     21968     21971     21963     21966     21972     21973
     21963     21966     21972     21974     21963     21966     21972     21975
     21964     21963     21966     21967     21964     21963     21966     21968
     21964     21963     21966     21972     21965     21963     21966     21967
     21965     21963     21966     21968     21965     21963     21966     21972
     21967     21966     21968     21969     21967     21966     21968     21970
     21967     21966     21968     21971     21967     21966     21972     21973
     21967     21966     21972     21974     21967     21966     21972     21975
     21968     21966     21972     21973     21968     21966     21972     21974
     21968     21966     21972     21975     21969     21968     21966     21972
     21970     21968     21966     21972     21971     21968     21966     21972
     21976     21980     21982     21983     21976     21980     21982     21984
     21976     21980     21985     21986     21976     21980     21985     21987
     21976     21980     21985     21991     21977     21976     21980     21981
     21977     21976     21980     21982     21977     21976     21980     21985
     21978     21976     21980     21981     21978     21976     21980     21982
     21978     21976     21980     21985     21979     21976     21980     21981
     21979     21976     21980     21982     21979     21976     21980     21985
     21980     21985     21991     21988     21981     21980     21982     21983
     21981     21980     21982     21984     21981     21980     21985     21986
     21981     21980     21985     21987     21981     21980     21985     21991
     21982     21980     21985     21986     21982     21980     21985     21987
     21982     21980     21985     21991     21983     21982     21980     21985
     21984     21982     21980     21985     21985     21991     21988     21989
     21985     21991     21988     21990     21985     21991     21988     21992
     21986     21985     21991     21988     21987     21985     21991     21988
     21988     21992     21993     21994     21988     21992     21993     21995
     21988     21992     21993     21996     21989     21988     21992     21993
     21990     21988     21992     21993     21991     21988     21992     21993
     21992     21993     21996     21997     21992     21993     21996     21998
     21992     21993     21996     22004     21993     21996     21998     21999
     21993     21996     22004     22005     21993     21996     22004     22006
     21993     21996     22004     22007     21994     21993     21996     21997
     21994     21993     21996     21998     21994     21993     21996     22004
     21995     21993     21996     21997     21995     21993     21996     21998
     21995     21993     21996     22004     21996     21998     21999     22000
     21996     21998     21999     22001     21996     22004     22007     22008
     21997     21996     21998     21999     21997     21996     22004     22005
     21997     21996     22004     22006     21997     21996     22004     22007
     21998     21996     22004     22005     21998     21996     22004     22006
     21998     21996     22004     22007     21998     21999     22001     22002
     21998     21999     22001     22003     21998     21999     22001     22013
     21999     21998     21996     22004     21999     22001     22013     22014
     21999     22001     22013     22015     21999     22001     22013     22016
     22000     21999     22001     22002     22000     21999     22001     22003
     22000     21999     22001     22013     22001     22013     22016     22017
     22001     22013     22016     22018     22001     22013     22016     22019
     22002     22001     22013     22014     22002     22001     22013     22015
     22002     22001     22013     22016     22003     22001     22013     22014
     22003     22001     22013     22015     22003     22001     22013     22016
     22004     22007     22008     22009     22004     22007     22008     22010
     22005     22004     22007     22008     22006     22004     22007     22008
     22007     22008     22010     22011     22007     22008     22010     22012
     22007     22008     22010     22060     22008     22010     22060     22061
     22008     22010     22060     22062     22008     22010     22060     22063
     22009     22008     22010     22011     22009     22008     22010     22012
     22009     22008     22010     22060     22010     22060     22063     22064
     22010     22060     22063     22065     22010     22060     22063     22066
     22011     22010     22060     22061     22011     22010     22060     22062
     22011     22010     22060     22063     22012     22010     22060     22061
     22012     22010     22060     22062     22012     22010     22060     22063
     22013     22016     22019     22020     22013     22016     22019     22021
     22014     22013     22016     22017     22014     22013     22016     22018
     22014     22013     22016     22019     22015     22013     22016     22017
     22015     22013     22016     22018     22015     22013     22016     22019
     22016     22019     22021     22022     22016     22019     22021     22023
     22017     22016     22019     22020     22017     22016     22019     22021
     22018     22016     22019     22020     22018     22016     22019     22021
     22019     22021     22023     22024     22019     22021     22023     22025
     22019     22021     22023     22026     22020     22019     22021     22022
     22020     22019     22021     22023     22021     22023     22026     22027
     22021     22023     22026     22028     22022     22021     22023     22024
     22022     22021     22023     22025     22022     22021     22023     22026
     22023     22026     22028     22029     22023     22026     22028     22030
     22024     22023     22026     22027     22024     22023     22026     22028
     22025     22023     22026     22027     22025     22023     22026     22028
     22026     22028     22030     22031     22026     22028     22030     22032
     22026     22028     22030     22033     22027     22026     22028     22029
     22027     22026     22028     22030     22028     22030     22033     22034
     22028     22030     22033     22035     22029     22028     22030     22031
     22029     22028     22030     22032     22029     22028     22030     22033
     22030     22033     22035     22036     22030     22033     22035     22037
     22031     22030     22033     22034     22031     22030     22033     22035
     22032     22030     22033     22034     22032     22030     22033     22035
     22033     22035     22037     22038     22033     22035     22037     22039
     22033     22035     22037     22040     22034     22033     22035     22036
     22034     22033     22035     22037     22035     22037     22040     22041
     22035     22037     22040     22042     22036     22035     22037     22038
     22036     22035     22037     22039     22036     22035     22037     22040
     22037     22040     22042     22043     22037     22040     22042     22044
     22038     22037     22040     22041     22038     22037     22040     22042
     22039     22037     22040     22041     22039     22037     22040     22042
     22040     22042     22044     22045     22040     22042     22044     22046
     22040     22042     22044     22047     22041     22040     22042     22043
     22041     22040     22042     22044     22042     22044     22047     22048
     22042     22044     22047     22049     22042     22044     22047     22050
     22043     22042     22044     22045     22043     22042     22044     22046
     22043     22042     22044     22047     22044     22047     22050     22051
     22044     22047     22050     22052     22044     22047     22050     22053
     22045     22044     22047     22048     22045     22044     22047     22049
     22045     22044     22047     22050     22046     22044     22047     22048
     22046     22044     22047     22049     22046     22044     22047     22050
     22047     22050     22053     22054     22047     22050     22053     22055
     22047     22050     22053     22056     22048     22047     22050     22051
     22048     22047     22050     22052     22048     22047     22050     22053
     22049     22047     22050     22051     22049     22047     22050     22052
     22049     22047     22050     22053     22050     22053     22056     22057
     22050     22053     22056     22058     22050     22053     22056     22059
     22051     22050     22053     22054     22051     22050     22053     22055
     22051     22050     22053     22056     22052     22050     22053     22054
     22052     22050     22053     22055     22052     22050     22053     22056
     22054     22053     22056     22057     22054     22053     22056     22058
     22054     22053     22056     22059     22055     22053     22056     22057
     22055     22053     22056     22058     22055     22053     22056     22059
     22060     22063     22066     22067     22060     22063     22066     22068
     22060     22063     22066     22069     22061     22060     22063     22064
     22061     22060     22063     22065     22061     22060     22063     22066
     22062     22060     22063     22064     22062     22060     22063     22065
     22062     22060     22063     22066     22063     22066     22069     22070
     22063     22066     22069     22071     22063     22066     22069     22072
     22064     22063     22066     22067     22064     22063     22066     22068
     22064     22063     22066     22069     22065     22063     22066     22067
     22065     22063     22066     22068     22065     22063     22066     22069
     22066     22069     22072     22073     22066     22069     22072     22074
     22066     22069     22072     22075     22067     22066     22069     22070
     22067     22066     22069     22071     22067     22066     22069     22072
     22068     22066     22069     22070     22068     22066     22069     22071
     22068     22066     22069     22072     22069     22072     22075     22076
     22069     22072     22075     22077     22069     22072     22075     22078
     22070     22069     22072     22073     22070     22069     22072     22074
     22070     22069     22072     22075     22071     22069     22072     22073
     22071     22069     22072     22074     22071     22069     22072     22075
     22072     22075     22078     22079     22072     22075     22078     22080
     22072     22075     22078     22081     22073     22072     22075     22076
     22073     22072     22075     22077     22073     22072     22075     22078
     22074     22072     22075     22076     22074     22072     22075     22077
     22074     22072     22075     22078     22075     22078     22081     22082
     22075     22078     22081     22083     22075     22078     22081     22084
     22076     22075     22078     22079     22076     22075     22078     22080
     22076     22075     22078     22081     22077     22075     22078     22079
     22077     22075     22078     22080     22077     22075     22078     22081
     22078     22081     22084     22085     22078     22081     22084     22086
     22078     22081     22084     22087     22079     22078     22081     22082
     22079     22078     22081     22083     22079     22078     22081     22084
     22080     22078     22081     22082     22080     22078     22081     22083
     22080     22078     22081     22084     22081     22084     22087     22088
     22081     22084     22087     22089     22081     22084     22087     22090
     22082     22081     22084     22085     22082     22081     22084     22086
     22082     22081     22084     22087     22083     22081     22084     22085
     22083     22081     22084     22086     22083     22081     22084     22087
     22084     22087     22090     22091     22084     22087     22090     22092
     22084     22087     22090     22093     22085     22084     22087     22088
     22085     22084     22087     22089     22085     22084     22087     22090
     22086     22084     22087     22088     22086     22084     22087     22089
     22086     22084     22087     22090     22087     22090     22093     22094
     22087     22090     22093     22095     22087     22090     22093     22096
     22088     22087     22090     22091     22088     22087     22090     22092
     22088     22087     22090     22093     22089     22087     22090     22091
     22089     22087     22090     22092     22089     22087     22090     22093
     22090     22093     22096     22097     22090     22093     22096     22098
     22090     22093     22096     22099     22091     22090     22093     22094
     22091     22090     22093     22095     22091     22090     22093     22096
     22092     22090     22093     22094     22092     22090     22093     22095
     22092     22090     22093     22096     22093     22096     22099     22100
     22093     22096     22099     22101     22093     22096     22099     22102
     22094     22093     22096     22097     22094     22093     22096     22098
     22094     22093     22096     22099     22095     22093     22096     22097
     22095     22093     22096     22098     22095     22093     22096     22099
     22096     22099     22102     22103     22096     22099     22102     22104
     22096     22099     22102     22105     22097     22096     22099     22100
     22097     22096     22099     22101     22097     22096     22099     22102
     22098     22096     22099     22100     22098     22096     22099     22101
     22098     22096     22099     22102     22099     22102     22105     22106
     22099     22102     22105     22107     22099     22102     22105     22108
     22100     22099     22102     22103     22100     22099     22102     22104
     22100     22099     22102     22105     22101     22099     22102     22103
     22101     22099     22102     22104     22101     22099     22102     22105
     22103     22102     22105     22106     22103     22102     22105     22107
     22103     22102     22105     22108     22104     22102     22105     22106
     22104     22102     22105     22107     22104     22102     22105     22108
     22109     22113     22116     22117     22109     22113     22116     22147
     22109     22155     22152     22147     22109     22155     22152     22153
     22109     22155     22152     22154     22110     22109     22111     22112
     22110     22109     22113     22114     22110     22109     22113     22115
     22110     22109     22113     22116     22110     22109     22155     22152
     22110     22109     22155     22156     22110     22109     22155     22157
     22111     22109     22113     22114     22111     22109     22113     22115
     22111     22109     22113     22116     22111     22109     22155     22152
     22111     22109     22155     22156     22111     22109     22155     22157
     22112     22111     22109     22113     22112     22111     22109     22155
     22113     22109     22155     22152     22113     22109     22155     22156
     22113     22109     22155     22157     22113     22116     22117     22118
     22113     22116     22117     22119     22113     22116     22147     22145
     22113     22116     22147     22148     22113     22116     22147     22152
     22114     22113     22109     22155     22114     22113     22116     22117
     22114     22113     22116     22147     22115     22113     22109     22155
     22115     22113     22116     22117     22115     22113     22116     22147
     22116     22113     22109     22155     22116     22117     22119     22120
     22116     22117     22119     22121     22116     22117     22119     22122
     22116     22147     22145     22122     22116     22147     22145     22142
     22116     22147     22145     22146     22116     22147     22148     22149
     22116     22147     22148     22150     22116     22147     22148     22151
     22116     22147     22152     22153     22116     22147     22152     22154
     22116     22147     22152     22155     22117     22116     22147     22145
     22117     22116     22147     22148     22117     22116     22147     22152
     22117     22119     22122     22123     22117     22119     22122     22124
     22117     22119     22122     22145     22118     22117     22116     22147
     22118     22117     22119     22120     22118     22117     22119     22121
     22118     22117     22119     22122     22119     22117     22116     22147
     22119     22122     22124     22125     22119     22122     22124     22126
     22119     22122     22124     22134     22119     22122     22145     22142
     22119     22122     22145     22146     22119     22122     22145     22147
     22120     22119     22122     22123     22120     22119     22122     22124
     22120     22119     22122     22145     22121     22119     22122     22123
     22121     22119     22122     22124     22121     22119     22122     22145
     22122     22124     22126     22127     22122     22124     22126     22128
     22122     22124     22126     22129     22122     22124     22134     22132
     22122     22124     22134     22135     22122     22124     22134     22139
     22122     22145     22142     22139     22122     22145     22142     22143
     22122     22145     22142     22144     22122     22145     22147     22148
     22122     22145     22147     22152     22123     22122     22124     22125
     22123     22122     22124     22126     22123     22122     22124     22134
     22123     22122     22145     22142     22123     22122     22145     22146
     22123     22122     22145     22147     22124     22122     22145     22142
     22124     22122     22145     22146     22124     22122     22145     22147
     22124     22126     22129     22130     22124     22126     22129     22131
     22124     22126     22129     22132     22124     22134     22132     22129
     22124     22134     22132     22133     22124     22134     22132     22158
     22124     22134     22135     22136     22124     22134     22135     22137
     22124     22134     22135     22138     22124     22134     22139     22140
     22124     22134     22139     22141     22124     22134     22139     22142
     22125     22124     22122     22145     22125     22124     22126     22127
     22125     22124     22126     22128     22125     22124     22126     22129
     22125     22124     22134     22132     22125     22124     22134     22135
     22125     22124     22134     22139     22126     22124     22122     22145
     22126     22124     22134     22132     22126     22124     22134     22135
     22126     22124     22134     22139     22126     22129     22132     22133
     22126     22129     22132     22134     22126     22129     22132     22158
     22127     22126     22124     22134     22127     22126     22129     22130
     22127     22126     22129     22131     22127     22126     22129     22132
     22128     22126     22124     22134     22128     22126     22129     22130
     22128     22126     22129     22131     22128     22126     22129     22132
     22129     22126     22124     22134     22129     22132     22134     22135
     22129     22132     22134     22139     22129     22132     22158     22159
     22129     22132     22158     22160     22129     22132     22158     22164
     22130     22129     22132     22133     22130     22129     22132     22134
     22130     22129     22132     22158     22131     22129     22132     22133
     22131     22129     22132     22134     22131     22129     22132     22158
     22132     22134     22135     22136     22132     22134     22135     22137
     22132     22134     22135     22138     22132     22134     22139     22140
     22132     22134     22139     22141     22132     22134     22139     22142
     22132     22158     22160     22161     22132     22158     22160     22162
     22132     22158     22160     22163     22132     22158     22164     22165
     22132     22158     22164     22166     22132     22158     22164     22167
     22133     22132     22134     22135     22133     22132     22134     22139
     22133     22132     22158     22159     22133     22132     22158     22160
     22133     22132     22158     22164     22134     22124     22122     22145
     22134     22132     22158     22159     22134     22132     22158     22160
     22134     22132     22158     22164     22134     22139     22142     22143
     22134     22139     22142     22144     22134     22139     22142     22145
     22135     22134     22132     22158     22135     22134     22139     22140
     22135     22134     22139     22141     22135     22134     22139     22142
     22136     22135     22134     22139     22137     22135     22134     22139
     22138     22135     22134     22139     22139     22134     22132     22158
     22139     22142     22145     22146     22139     22142     22145     22147
     22140     22139     22142     22143     22140     22139     22142     22144
     22140     22139     22142     22145     22141     22139     22142     22143
     22141     22139     22142     22144     22141     22139     22142     22145
     22142     22145     22147     22148     22142     22145     22147     22152
     22143     22142     22145     22146     22143     22142     22145     22147
     22144     22142     22145     22146     22144     22142     22145     22147
     22145     22147     22148     22149     22145     22147     22148     22150
     22145     22147     22148     22151     22145     22147     22152     22153
     22145     22147     22152     22154     22145     22147     22152     22155
     22146     22145     22147     22148     22146     22145     22147     22152
     22147     22152     22155     22156     22147     22152     22155     22157
     22148     22147     22152     22153     22148     22147     22152     22154
     22148     22147     22152     22155     22149     22148     22147     22152
     22150     22148     22147     22152     22151     22148     22147     22152
     22153     22152     22155     22156     22153     22152     22155     22157
     22154     22152     22155     22156     22154     22152     22155     22157
     22158     22164     22167     22168     22158     22164     22167     22169
     22158     22164     22167     22170     22159     22158     22160     22161
     22159     22158     22160     22162     22159     22158     22160     22163
     22159     22158     22164     22165     22159     22158     22164     22166
     22159     22158     22164     22167     22160     22158     22164     22165
     22160     22158     22164     22166     22160     22158     22164     22167
     22161     22160     22158     22164     22162     22160     22158     22164
     22163     22160     22158     22164     22164     22167     22170     22171
     22164     22167     22170     22172     22164     22167     22170     22173
     22165     22164     22167     22168     22165     22164     22167     22169
     22165     22164     22167     22170     22166     22164     22167     22168
     22166     22164     22167     22169     22166     22164     22167     22170
     22167     22170     22173     22174     22167     22170     22173     22175
     22167     22170     22173     22179     22168     22167     22170     22171
     22168     22167     22170     22172     22168     22167     22170     22173
     22169     22167     22170     22171     22169     22167     22170     22172
     22169     22167     22170     22173     22170     22173     22175     22176
     22170     22173     22175     22177     22170     22173     22175     22178
     22170     22173     22179     22180     22170     22173     22179     22181
     22170     22173     22179     22182     22171     22170     22173     22174
     22171     22170     22173     22175     22171     22170     22173     22179
     22172     22170     22173     22174     22172     22170     22173     22175
     22172     22170     22173     22179     22174     22173     22175     22176
     22174     22173     22175     22177     22174     22173     22175     22178
     22174     22173     22179     22180     22174     22173     22179     22181
     22174     22173     22179     22182     22175     22173     22179     22180
     22175     22173     22179     22181     22175     22173     22179     22182
     22176     22175     22173     22179     22177     22175     22173     22179
     22178     22175     22173     22179     22183     22196     22199     22200
     22183     22196     22199     22201     22183     22196     22199     22205
     22184     22183     22188     22189     22184     22183     22188     22190
     22184     22183     22188     22191     22184     22183     22192     22193
     22184     22183     22192     22194     22184     22183     22192     22195
     22184     22183     22196     22197     22184     22183     22196     22198
     22184     22183     22196     22199     22185     22184     22183     22188
     22185     22184     22183     22192     22185     22184     22183     22196
     22186     22184     22183     22188     22186     22184     22183     22192
     22186     22184     22183     22196     22187     22184     22183     22188
     22187     22184     22183     22192     22187     22184     22183     22196
     22188     22183     22192     22193     22188     22183     22192     22194
     22188     22183     22192     22195     22188     22183     22196     22197
     22188     22183     22196     22198     22188     22183     22196     22199
     22189     22188     22183     22192     22189     22188     22183     22196
     22190     22188     22183     22192     22190     22188     22183     22196
     22191     22188     22183     22192     22191     22188     22183     22196
     22192     22183     22196     22197     22192     22183     22196     22198
     22192     22183     22196     22199     22193     22192     22183     22196
     22194     22192     22183     22196     22195     22192     22183     22196
     22196     22199     22205     22202     22197     22196     22199     22200
     22197     22196     22199     22201     22197     22196     22199     22205
     22198     22196     22199     22200     22198     22196     22199     22201
     22198     22196     22199     22205     22199     22205     22202     22203
     22199     22205     22202     22204     22199     22205     22202     22206
     22200     22199     22205     22202     22201     22199     22205     22202
     22202     22206     22207     22208     22202     22206     22207     22209
     22202     22206     22207     22210     22203     22202     22206     22207
     22204     22202     22206     22207     22205     22202     22206     22207
     22206     22207     22210     22211     22206     22207     22210     22212
     22206     22207     22210     22218     22207     22210     22212     22213
     22207     22210     22218     22219     22207     22210     22218     22220
     22207     22210     22218     22221     22208     22207     22210     22211
     22208     22207     22210     22212     22208     22207     22210     22218
     22209     22207     22210     22211     22209     22207     22210     22212
     22209     22207     22210     22218     22210     22212     22213     22214
     22210     22212     22213     22215     22210     22218     22221     22222
     22211     22210     22212     22213     22211     22210     22218     22219
     22211     22210     22218     22220     22211     22210     22218     22221
     22212     22210     22218     22219     22212     22210     22218     22220
     22212     22210     22218     22221     22212     22213     22215     22216
     22212     22213     22215     22217     22212     22213     22215     22227
     22213     22212     22210     22218     22213     22215     22227     22228
     22213     22215     22227     22229     22213     22215     22227     22230
     22214     22213     22215     22216     22214     22213     22215     22217
     22214     22213     22215     22227     22215     22227     22230     22231
     22215     22227     22230     22232     22215     22227     22230     22233
     22216     22215     22227     22228     22216     22215     22227     22229
     22216     22215     22227     22230     22217     22215     22227     22228
     22217     22215     22227     22229     22217     22215     22227     22230
     22218     22221     22222     22223     22218     22221     22222     22224
     22219     22218     22221     22222     22220     22218     22221     22222
     22221     22222     22224     22225     22221     22222     22224     22226
     22221     22222     22224     22272     22222     22224     22272     22273
     22222     22224     22272     22274     22222     22224     22272     22275
     22223     22222     22224     22225     22223     22222     22224     22226
     22223     22222     22224     22272     22224     22272     22275     22276
     22224     22272     22275     22277     22224     22272     22275     22278
     22225     22224     22272     22273     22225     22224     22272     22274
     22225     22224     22272     22275     22226     22224     22272     22273
     22226     22224     22272     22274     22226     22224     22272     22275
     22227     22230     22233     22234     22227     22230     22233     22235
     22227     22230     22233     22236     22228     22227     22230     22231
     22228     22227     22230     22232     22228     22227     22230     22233
     22229     22227     22230     22231     22229     22227     22230     22232
     22229     22227     22230     22233     22230     22233     22236     22237
     22230     22233     22236     22238     22230     22233     22236     22239
     22231     22230     22233     22234     22231     22230     22233     22235
     22231     22230     22233     22236     22232     22230     22233     22234
     22232     22230     22233     22235     22232     22230     22233     22236
     22233     22236     22239     22240     22233     22236     22239     22241
     22233     22236     22239     22242     22234     22233     22236     22237
     22234     22233     22236     22238     22234     22233     22236     22239
     22235     22233     22236     22237     22235     22233     22236     22238
     22235     22233     22236     22239     22236     22239     22242     22243
     22236     22239     22242     22244     22236     22239     22242     22245
     22237     22236     22239     22240     22237     22236     22239     22241
     22237     22236     22239     22242     22238     22236     22239     22240
     22238     22236     22239     22241     22238     22236     22239     22242
     22239     22242     22245     22246     22239     22242     22245     22247
     22240     22239     22242     22243     22240     22239     22242     22244
     22240     22239     22242     22245     22241     22239     22242     22243
     22241     22239     22242     22244     22241     22239     22242     22245
     22242     22245     22247     22248     22242     22245     22247     22249
     22243     22242     22245     22246     22243     22242     22245     22247
     22244     22242     22245     22246     22244     22242     22245     22247
     22245     22247     22249     22250     22245     22247     22249     22251
     22245     22247     22249     22252     22246     22245     22247     22248
     22246     22245     22247     22249     22247     22249     22252     22253
     22247     22249     22252     22254     22248     22247     22249     22250
     22248     22247     22249     22251     22248     22247     22249     22252
     22249     22252     22254     22255     22249     22252     22254     22256
     22250     22249     22252     22253     22250     22249     22252     22254
     22251     22249     22252     22253     22251     22249     22252     22254
     22252     22254     22256     22257     22252     22254     22256     22258
     22252     22254     22256     22259     22253     22252     22254     22255
     22253     22252     22254     22256     22254     22256     22259     22260
     22254     22256     22259     22261     22254     22256     22259     22262
     22255     22254     22256     22257     22255     22254     22256     22258
     22255     22254     22256     22259     22256     22259     22262     22263
     22256     22259     22262     22264     22256     22259     22262     22265
     22257     22256     22259     22260     22257     22256     22259     22261
     22257     22256     22259     22262     22258     22256     22259     22260
     22258     22256     22259     22261     22258     22256     22259     22262
     22259     22262     22265     22266     22259     22262     22265     22267
     22259     22262     22265     22268     22260     22259     22262     22263
     22260     22259     22262     22264     22260     22259     22262     22265
     22261     22259     22262     22263     22261     22259     22262     22264
     22261     22259     22262     22265     22262     22265     22268     22269
     22262     22265     22268     22270     22262     22265     22268     22271
     22263     22262     22265     22266     22263     22262     22265     22267
     22263     22262     22265     22268     22264     22262     22265     22266
     22264     22262     22265     22267     22264     22262     22265     22268
     22266     22265     22268     22269     22266     22265     22268     22270
     22266     22265     22268     22271     22267     22265     22268     22269
     22267     22265     22268     22270     22267     22265     22268     22271
     22272     22275     22278     22279     22272     22275     22278     22280
     22272     22275     22278     22281     22273     22272     22275     22276
     22273     22272     22275     22277     22273     22272     22275     22278
     22274     22272     22275     22276     22274     22272     22275     22277
     22274     22272     22275     22278     22275     22278     22281     22282
     22275     22278     22281     22283     22275     22278     22281     22284
     22276     22275     22278     22279     22276     22275     22278     22280
     22276     22275     22278     22281     22277     22275     22278     22279
     22277     22275     22278     22280     22277     22275     22278     22281
     22278     22281     22284     22285     22278     22281     22284     22286
     22278     22281     22284     22287     22279     22278     22281     22282
     22279     22278     22281     22283     22279     22278     22281     22284
     22280     22278     22281     22282     22280     22278     22281     22283
     22280     22278     22281     22284     22281     22284     22287     22288
     22281     22284     22287     22289     22281     22284     22287     22290
     22282     22281     22284     22285     22282     22281     22284     22286
     22282     22281     22284     22287     22283     22281     22284     22285
     22283     22281     22284     22286     22283     22281     22284     22287
     22284     22287     22290     22291     22284     22287     22290     22292
     22284     22287     22290     22293     22285     22284     22287     22288
     22285     22284     22287     22289     22285     22284     22287     22290
     22286     22284     22287     22288     22286     22284     22287     22289
     22286     22284     22287     22290     22287     22290     22293     22294
     22287     22290     22293     22295     22287     22290     22293     22296
     22288     22287     22290     22291     22288     22287     22290     22292
     22288     22287     22290     22293     22289     22287     22290     22291
     22289     22287     22290     22292     22289     22287     22290     22293
     22290     22293     22296     22297     22290     22293     22296     22298
     22290     22293     22296     22299     22291     22290     22293     22294
     22291     22290     22293     22295     22291     22290     22293     22296
     22292     22290     22293     22294     22292     22290     22293     22295
     22292     22290     22293     22296     22293     22296     22299     22300
     22293     22296     22299     22301     22293     22296     22299     22302
     22294     22293     22296     22297     22294     22293     22296     22298
     22294     22293     22296     22299     22295     22293     22296     22297
     22295     22293     22296     22298     22295     22293     22296     22299
     22296     22299     22302     22303     22296     22299     22302     22304
     22296     22299     22302     22305     22297     22296     22299     22300
     22297     22296     22299     22301     22297     22296     22299     22302
     22298     22296     22299     22300     22298     22296     22299     22301
     22298     22296     22299     22302     22299     22302     22305     22306
     22299     22302     22305     22307     22299     22302     22305     22308
     22300     22299     22302     22303     22300     22299     22302     22304
     22300     22299     22302     22305     22301     22299     22302     22303
     22301     22299     22302     22304     22301     22299     22302     22305
     22302     22305     22308     22309     22302     22305     22308     22310
     22302     22305     22308     22311     22303     22302     22305     22306
     22303     22302     22305     22307     22303     22302     22305     22308
     22304     22302     22305     22306     22304     22302     22305     22307
     22304     22302     22305     22308     22305     22308     22311     22312
     22305     22308     22311     22313     22305     22308     22311     22314
     22306     22305     22308     22309     22306     22305     22308     22310
     22306     22305     22308     22311     22307     22305     22308     22309
     22307     22305     22308     22310     22307     22305     22308     22311
     22308     22311     22314     22315     22308     22311     22314     22316
     22308     22311     22314     22317     22309     22308     22311     22312
     22309     22308     22311     22313     22309     22308     22311     22314
     22310     22308     22311     22312     22310     22308     22311     22313
     22310     22308     22311     22314     22311     22314     22317     22318
     22311     22314     22317     22319     22311     22314     22317     22320
     22312     22311     22314     22315     22312     22311     22314     22316
     22312     22311     22314     22317     22313     22311     22314     22315
     22313     22311     22314     22316     22313     22311     22314     22317
     22315     22314     22317     22318     22315     22314     22317     22319
     22315     22314     22317     22320     22316     22314     22317     22318
     22316     22314     22317     22319     22316     22314     22317     22320

       272 !NIMPHI: impropers
       179       178       181       180       188       187       190       189
       393       392       395       394       402       401       404       403
       596       595       598       597       605       604       607       606
       727       726       729       728       736       735       738       737
      1006      1005      1008      1007      1015      1014      1017      1016
      1220      1219      1222      1221      1229      1228      1231      1230
      1407      1409      1355      1408      1355      1407      1357      1356
      1482      1481      1484      1483      1491      1490      1493      1492
      1671      1673      1619      1672      1619      1671      1621      1620
      1901      1900      1903      1902      1910      1909      1912      1911
      2090      2092      2038      2091      2038      2090      2040      2039
      2163      2162      2165      2164      2172      2171      2174      2173
      2442      2441      2444      2443      2451      2450      2453      2452
      2582      2581      2584      2583      2591      2590      2593      2592
      2709      2708      2711      2710      2718      2717      2720      2719
      2914      2913      2916      2915      2923      2922      2925      2924
      3054      3053      3056      3055      3063      3062      3065      3064
      3194      3193      3196      3195      3203      3202      3205      3204
      3381      3383      3329      3382      3329      3381      3331      3330
      3454      3453      3456      3455      3463      3462      3465      3464
      3643      3645      3591      3644      3591      3643      3593      3592
      3774      3776      3722      3775      3722      3774      3724      3723
      3905      3907      3853      3906      3853      3905      3855      3854
      4061      4060      4063      4062      4070      4069      4072      4071
      4244      4246      4192      4245      4192      4244      4194      4193
      4329      4328      4331      4330      4338      4337      4340      4339
      4460      4459      4462      4461      4469      4468      4471      4470
      4591      4590      4593      4592      4600      4599      4602      4601
      4780      4782      4728      4781      4728      4780      4730      4729
      4853      4852      4855      4854      4862      4861      4864      4863
      5042      5044      4990      5043      4990      5042      4992      4991
      5115      5114      5117      5116      5124      5123      5126      5125
      5329      5328      5331      5330      5338      5337      5340      5339
      5534      5533      5536      5535      5543      5542      5545      5544
      5723      5725      5671      5724      5671      5723      5673      5672
      5805      5804      5807      5806      5814      5813      5816      5815
      6017      6016      6019      6018      6026      6025      6028      6027
      6150      6149      6152      6151      6159      6158      6161      6160
      6290      6289      6292      6291      6299      6298      6301      6300
      6419      6418      6421      6420      6428      6427      6430      6429
      6559      6558      6561      6560      6568      6567      6570      6569
      6748      6750      6696      6749      6696      6748      6698      6697
      6904      6903      6906      6905      6913      6912      6915      6914
      7119      7118      7121      7120      7128      7127      7130      7129
      7333      7332      7335      7334      7342      7341      7344      7343
      7462      7461      7464      7463      7471      7470      7473      7472
      7595      7594      7597      7596      7604      7603      7606      7605
      7809      7808      7811      7810      7818      7817      7820      7819
      7992      7994      7940      7993      7940      7992      7942      7941
      8067      8066      8069      8068      8076      8075      8078      8077
      8256      8258      8204      8257      8204      8256      8206      8205
      8412      8411      8414      8413      8421      8420      8423      8422
      8619      8618      8621      8620      8628      8627      8630      8629
      8808      8810      8756      8809      8756      8808      8758      8757
      8881      8880      8883      8882      8890      8889      8892      8891
      9070      9072      9018      9071      9018      9070      9020      9019
      9217      9216      9219      9218      9226      9225      9228      9227
      9348      9347      9350      9349      9357      9356      9359      9358
      9488      9487      9490      9489      9497      9496      9499      9498
      9613      9612      9615      9614      9622      9621      9624      9623
      9753      9752      9755      9754      9762      9761      9764      9763
      9967      9966      9969      9968      9976      9975      9978      9977
     10244     10243     10246     10245     10253     10252     10255     10254
     10377     10376     10379     10378     10386     10385     10388     10387
     10510     10509     10512     10511     10519     10518     10521     10520
     10789     10788     10791     10790     10798     10797     10800     10799
     10978     10980     10926     10979     10926     10978     10928     10927
     11109     11111     11057     11110     11057     11109     11059     11058
     11240     11242     11188     11241     11188     11240     11190     11189
     11396     11395     11398     11397     11405     11404     11407     11406
     11534     11533     11536     11535     11543     11542     11545     11544
     11746     11745     11748     11747     11755     11754     11757     11756
     11871     11870     11873     11872     11880     11879     11882     11881
     12060     12062     12008     12061     12008     12060     12010     12009
     12283     12282     12285     12284     12292     12291     12294     12293
     12423     12422     12425     12424     12432     12431     12434     12433
     12622     12621     12624     12623     12631     12630     12633     12632
     12762     12761     12764     12763     12771     12770     12773     12772
     12965     12964     12967     12966     12974     12973     12976     12975
     13154     13156     13102     13155     13102     13154     13104     13103
     13359     13361     13307     13360     13307     13359     13309     13308
     13589     13588     13591     13590     13598     13597     13600     13599
     13803     13802     13805     13804     13812     13811     13814     13813
     13934     13933     13936     13935     13943     13942     13945     13944
     14065     14064     14067     14066     14074     14073     14076     14075
     14198     14197     14200     14199     14207     14206     14209     14208
     14387     14389     14335     14388     14335     14387     14337     14336
     14469     14468     14471     14470     14478     14477     14480     14479
     14676     14675     14678     14677     14685     14684     14687     14686
     14881     14880     14883     14882     14890     14889     14892     14891
     15070     15072     15018     15071     15018     15070     15020     15019
     15226     15225     15228     15227     15235     15234     15237     15236
     15409     15411     15357     15410     15357     15409     15359     15358
     15482     15481     15484     15483     15491     15490     15493     15492
     15671     15673     15619     15672     15619     15671     15621     15620
     15746     15745     15748     15747     15755     15754     15757     15756
     15877     15876     15879     15878     15886     15885     15888     15887
     16140     16142     16088     16141     16088     16140     16090     16089
     16213     16212     16215     16214     16222     16221     16224     16223
     16427     16426     16429     16428     16436     16435     16438     16437
     16561     16560     16563     16562     16570     16569     16572     16571
     16701     16700     16703     16702     16710     16709     16712     16711
     16904     16903     16906     16905     16913     16912     16915     16914
     17035     17034     17037     17036     17044     17043     17046     17045
     17249     17248     17251     17250     17258     17257     17260     17259
     17528     17527     17530     17529     17537     17536     17539     17538
     17671     17670     17673     17672     17680     17679     17682     17681
     17888     17887     17890     17889     17897     17896     17899     17898
     18019     18018     18021     18020     18028     18027     18030     18029
     18208     18210     18156     18209     18156     18208     18158     18157
     18339     18341     18287     18340     18287     18339     18289     18288
     18412     18411     18414     18413     18421     18420     18423     18422
     18552     18551     18554     18553     18561     18560     18563     18562
     18739     18741     18687     18740     18687     18739     18689     18688
     18870     18872     18818     18871     18818     18870     18820     18819
     18943     18942     18945     18944     18952     18951     18954     18953
     19074     19073     19076     19075     19083     19082     19085     19084
     19214     19213     19216     19215     19223     19222     19225     19224
     19354     19353     19356     19355     19363     19362     19365     19364
     19487     19486     19489     19488     19496     19495     19498     19497
     19676     19678     19624     19677     19624     19676     19626     19625
     19758     19757     19760     19759     19767     19766     19769     19768
     19887     19886     19889     19888     19896     19895     19898     19897
     20018     20017     20020     20019     20027     20026     20029     20028
     20151     20150     20153     20152     20160     20159     20162     20161
     20340     20342     20288     20341     20288     20340     20290     20289
     20422     20421     20424     20423     20431     20430     20433     20432
     20708     20707     20710     20709     20717     20716     20719     20718
     20897     20899     20845     20898     20845     20897     20847     20846
     20972     20971     20974     20973     20981     20980     20983     20982
     21309     21311     21257     21310     21257     21309     21259     21258
     21456     21455     21458     21457     21465     21464     21467     21466
     21587     21586     21589     21588     21596     21595     21598     21597
     21850     21852     21798     21851     21798     21850     21800     21799
     21999     21998     22001     22000     22008     22007     22010     22009
     22213     22212     22215     22214     22222     22221     22224     22223

       178 !NDON: donors
     22321     22322     22321     22323     22324     22325     22324     22326
     22327     22328     22327     22329     22330     22331     22330     22332
     22333     22334     22333     22335     22336     22337     22336     22338
     22339     22340     22339     22341     22342     22343     22342     22344
     22345     22346     22345     22347     22348     22349     22348     22350
     22351     22352     22351     22353     22354     22355     22354     22356
     22357     22358     22357     22359     22360     22361     22360     22362
     22363     22364     22363     22365     22366     22367     22366     22368
     22369     22370     22369     22371     22372     22373     22372     22374
     22375     22376     22375     22377     22378     22379     22378     22380
     22381     22382     22381     22383     22384     22385     22384     22386
     22387     22388     22387     22389     22390     22391     22390     22392
     22393     22394     22393     22395     22396     22397     22396     22398
     22399     22400     22399     22401     22402     22403     22402     22404
     22405     22406     22405     22407     22408     22409     22408     22410
     22411     22412     22411     22413     22414     22415     22414     22416
     22417     22418     22417     22419     22420     22421     22420     22422
     22423     22424     22423     22425     22426     22427     22426     22428
     22429     22430     22429     22431     22432     22433     22432     22434
     22435     22436     22435     22437     22438     22439     22438     22440
     22441     22442     22441     22443     22444     22445     22444     22446
     22447     22448     22447     22449     22450     22451     22450     22452
     22453     22454     22453     22455     22456     22457     22456     22458
     22459     22460     22459     22461     22462     22463     22462     22464
     22465     22466     22465     22467     22468     22469     22468     22470
     22471     22472     22471     22473     22474     22475     22474     22476
     22477     22478     22477     22479     22480     22481     22480     22482
     22483     22484     22483     22485     22486     22487     22486     22488
     22489     22490     22489     22491     22492     22493     22492     22494
     22495     22496     22495     22497     22498     22499     22498     22500
     22501     22502     22501     22503     22504     22505     22504     22506
     22507     22508     22507     22509     22510     22511     22510     22512
     22513     22514     22513     22515     22516     22517     22516     22518
     22519     22520     22519     22521     22522     22523     22522     22524
     22525     22526     22525     22527     22528     22529     22528     22530
     22531     22532     22531     22533     22534     22535     22534     22536
     22537     22538     22537     22539     22540     22541     22540     22542
     22543     22544     22543     22545     22546     22547     22546     22548
     22549     22550     22549     22551     22552     22553     22552     22554
     22555     22556     22555     22557     22558     22559     22558     22560
     22561     22562     22561     22563     22564     22565     22564     22566
     22567     22568     22567     22569     22570     22571     22570     22572
     22573     22574     22573     22575     22576     22577     22576     22578
     22579     22580     22579     22581     22582     22583     22582     22584
     22585     22586     22585     22587

        89 !NACC: acceptors
     22321         0     22324         0     22327         0     22330         0
     22333         0     22336         0     22339         0     22342         0
     22345         0     22348         0     22351         0     22354         0
     22357         0     22360         0     22363         0     22366         0
     22369         0     22372         0     22375         0     22378         0
     22381         0     22384         0     22387         0     22390         0
     22393         0     22396         0     22399         0     22402         0
     22405         0     22408         0     22411         0     22414         0
     22417         0     22420         0     22423         0     22426         0
     22429         0     22432         0     22435         0     22438         0
     22441         0     22444         0     22447         0     22450         0
     22453         0     22456         0     22459         0     22462         0
     22465         0     22468         0     22471         0     22474         0
     22477         0     22480         0     22483         0     22486         0
     22489         0     22492         0     22495         0     22498         0
     22501         0     22504         0     22507         0     22510         0
     22513         0     22516         0     22519         0     22522         0
     22525         0     22528         0     22531         0     22534         0
     22537         0     22540         0     22543         0     22546         0
     22549         0     22552         0     22555         0     22558         0
     22561         0     22564         0     22567         0     22570         0
     22573         0     22576         0     22579         0     22582         0
     22585         0

         0 !NNB

         0         0         0         0         0         0         0         0
         0         0         0         0         0         0         0         0
         0         0         0         0         0         0         0         0
         0         0         0         0         0         0         0         0
         0         0         0         0         0         0         0         0
         0         0         0         0         0         0         0         0
         0         0         0         0         0         0         0         0
         0         0         0         0         0         0         0         0
         0         0         0         0         0         0         0         0
         0         0         0         0         0         0         0         0
         0         0         0         0         0         0         0         0
         0         0         0         0         0         0         0         0
         0         0         0         0         0         0         0         0
         0         0         0         0         0         0         0         0
         0         0         0         0         0         0         0         0
         0         0         0         0         0         0         0         0
         0         0         0         0         0         0         0         0
         0         0         0         0         0         0         0         0
         0         0         0         0         0         0         0         0
         0         0         0         0         0         0         0         0
         0         0         0         0         0         0         0         0
         0         0         0         0         0         0         0         0
         0         0         0         0         0         0         0         0
         0         0         0         0         0         0         0         0
         0         0         0         0         0         0         0         0
         0         0         0         0         0         0         0         0
         0         0         0         0         0         0         0         0
         0         0         0         0         0         0         0         0
         0         0         0         0         0         0         0         0
         0         0         0         0         0         0         0         0
         0         0         0         0         0         0         0         0
         0         0         0         0         0         0         0         0
         0         0         0         0         0         0         0         0
         0         0         0         0         0         0         0         0
         0         0         0         0         0         0         0         0
         0         0         0         0         0         0         0         0
         0         0         0         0         0         0         0         0
         0         0         0         0         0         0         0         0
         0         0         0         0         0         0         0         0
         0         0         0         0         0         0         0         0
         0         0         0         0         0         0         0         0
         0         0         0         0         0         0         0         0
         0         0         0         0         0         0         0         0
         0         0         0         0         0         0         0         0
         0         0         0         0         0         0         0         0
         0         0         0         0         0         0         0         0
         0         0         0         0         0         0         0         0
         0         0         0         0         0         0         0         0
         0         0         0         0         0         0         0         0
         0         0         0         0         0         0         0         0
         0         0         0         0         0         0         0         0
         0         0         0         0         0         0         0         0
         0         0         0         0         0         0         0         0
         0         0         0         0         0         0         0         0
         0         0         0         0         0         0         0         0
         0         0         0         0         0         0         0         0
         0         0         0         0         0         0         0         0
         0         0         0         0         0         0         0         0
         0         0         0         0         0         0         0         0
         0         0         0         0         0         0         0         0
         0         0         0         0         0         0         0         0
         0         0         0         0         0         0         0         0
         0         0         0         0         0         0         0         0
         0         0         0         0         0         0         0         0
         0         0         0         0         0         0         0         0
         0         0         0         0         0         0         0         0
         0         0         0         0         0         0         0         0
         0         0         0         0         0         0         0         0
         0         0         0         0         0         0         0         0
         0         0         0         0         0         0         0         0
         0         0         0         0         0         0         0         0
         0         0         0         0         0         0         0         0
         0         0         0         0         0         0         0         0
         0         0         0         0         0         0         0         0
         0         0         0         0         0         0         0         0
         0         0         0         0         0         0         0         0
         0         0         0         0         0         0         0         0
         0         0         0         0         0         0         0         0
         0         0         0         0         0         0         0         0
         0         0         0         0         0         0         0         0
         0         0         0         0         0         0         0         0
         0         0         0         0         0         0         0         0
         0         0         0         0         0         0         0         0
         0         0         0         0         0         0         0         0
         0         0         0         0         0         0         0         0
         0         0         0         0         0         0         0         0
         0         0         0         0         0         0         0         0
         0         0         0         0         0         0         0         0
         0         0         0         0         0         0         0         0
         0         0         0         0         0         0         0         0
         0         0         0         0         0         0         0         0
         0         0         0         0         0         0         0         0
         0         0         0         0         0         0         0         0
         0         0         0         0         0         0         0         0
         0         0         0         0         0         0         0         0
         0         0         0         0         0         0         0         0
         0         0         0         0         0         0         0         0
         0         0         0         0         0         0         0         0
         0         0         0         0         0         0         0         0
         0         0         0         0         0         0         0         0
         0         0         0         0         0         0         0         0
         0         0         0         0         0         0         0         0
         0         0         0         0         0         0         0         0
         0         0         0         0         0         0         0         0
         0         0         0         0         0         0         0         0
         0         0         0         0         0         0         0         0
         0         0         0         0         0         0         0         0
         0         0         0         0         0         0         0         0
         0         0         0         0         0         0         0         0
         0         0         0         0         0         0         0         0
         0         0         0         0         0         0         0         0
         0         0         0         0         0         0         0         0
         0         0         0         0         0         0         0         0
         0         0         0         0         0         0         0         0
         0         0         0         0         0         0         0         0
         0         0         0         0         0         0         0         0
         0         0         0         0         0         0         0         0
         0         0         0         0         0         0         0         0
         0         0         0         0         0         0         0         0
         0         0         0         0         0         0         0         0
         0         0         0         0         0         0         0         0
         0         0         0         0         0         0         0         0
         0         0         0         0         0         0         0         0
         0         0         0         0         0         0         0         0
         0         0         0         0         0         0         0         0
         0         0         0         0         0         0         0         0
         0         0         0         0         0         0         0         0
         0         0         0         0         0         0         0         0
         0         0         0         0         0         0         0         0
         0         0         0         0         0         0         0         0
         0         0         0         0         0         0         0         0
         0         0         0         0         0         0         0         0
         0         0         0         0         0         0         0         0
         0         0         0         0         0         0         0         0
         0         0         0         0         0         0         0         0
         0         0         0         0         0         0         0         0
         0         0         0         0         0         0         0         0
         0         0         0         0         0         0         0         0
         0         0         0         0         0         0         0         0
         0         0         0         0         0         0         0         0
         0         0         0         0         0         0         0         0
         0         0         0         0         0         0         0         0
         0         0         0         0         0         0         0         0
         0         0         0         0         0         0         0         0
         0         0         0         0         0         0         0         0
         0         0         0         0         0         0         0         0
         0         0         0         0         0         0         0         0
         0         0         0         0         0         0         0         0
         0         0         0         0         0         0         0         0
         0         0         0         0         0         0         0         0
         0         0         0         0         0         0         0         0
         0         0         0         0         0         0         0         0
         0         0         0         0         0         0         0         0
         0         0         0         0         0         0         0         0
         0         0         0         0         0         0         0         0
         0         0         0         0         0         0         0         0
         0         0         0         0         0         0         0         0
         0         0         0         0         0         0         0         0
         0         0         0         0         0         0         0         0
         0         0         0         0         0         0         0         0
         0         0         0         0         0         0         0         0
         0         0         0         0         0         0         0         0
         0         0         0         0         0         0         0         0
         0         0         0         0         0         0         0         0
         0         0         0         0         0         0         0         0
         0         0         0         0         0         0         0         0
         0         0         0         0         0         0         0         0
         0         0         0         0         0         0         0         0
         0         0         0         0         0         0         0         0
         0         0         0         0         0         0         0         0
         0         0         0         0         0         0         0         0
         0         0         0         0         0         0         0         0
         0         0         0         0         0         0         0         0
         0         0         0         0         0         0         0         0
         0         0         0         0         0         0         0         0
         0         0         0         0         0         0         0         0
         0         0         0         0         0         0         0         0
         0         0         0         0         0         0         0         0
         0         0         0         0         0         0         0         0
         0         0         0         0         0         0         0         0
         0         0         0         0         0         0         0         0
         0         0         0         0         0         0         0         0
         0         0         0         0         0         0         0         0
         0         0         0         0         0         0         0         0
         0         0         0         0         0         0         0         0
         0         0         0         0         0         0         0         0
         0         0         0         0         0         0         0         0
         0         0         0         0         0         0         0         0
         0         0         0         0         0         0         0         0
         0         0         0         0         0         0         0         0
         0         0         0         0         0         0         0         0
         0         0         0         0         0         0         0         0
         0         0         0         0         0         0         0         0
         0         0         0         0         0         0         0         0
         0         0         0         0         0         0         0         0
         0         0         0         0         0         0         0         0
         0         0         0         0         0         0         0         0
         0         0         0         0         0         0         0         0
         0         0         0         0         0         0         0         0
         0         0         0         0         0         0         0         0
         0         0         0         0         0         0         0         0
         0         0         0         0         0         0         0         0
         0         0         0         0         0         0         0         0
         0         0         0         0         0         0         0         0
         0         0         0         0         0         0         0         0
         0         0         0         0         0         0         0         0
         0         0         0         0         0         0         0         0
         0         0         0         0         0         0         0         0
         0         0         0         0         0         0         0         0
         0         0         0         0         0         0         0         0
         0         0         0         0         0         0         0         0
         0         0         0         0         0         0         0         0
         0         0         0         0         0         0         0         0
         0         0         0         0         0         0         0         0
         0         0         0         0         0         0         0         0
         0         0         0         0         0         0         0         0
         0         0         0         0         0         0         0         0
         0         0         0         0         0         0         0         0
         0         0         0         0         0         0         0         0
         0         0         0         0         0         0         0         0
         0         0         0         0         0         0         0         0
         0         0         0         0         0         0         0         0
         0         0         0         0         0         0         0         0
         0         0         0         0         0         0         0         0
         0         0         0         0         0         0         0         0
         0         0         0         0         0         0         0         0
         0         0         0         0         0         0         0         0
         0         0         0         0         0         0         0         0
         0         0         0         0         0         0         0         0
         0         0         0         0         0         0         0         0
         0         0         0         0         0         0         0         0
         0         0         0         0         0         0         0         0
         0         0         0         0         0         0         0         0
         0         0         0         0         0         0         0         0
         0         0         0         0         0         0         0         0
         0         0         0         0         0         0         0         0
         0         0         0         0         0         0         0         0
         0         0         0         0         0         0         0         0
         0         0         0         0         0         0         0         0
         0         0         0         0         0         0         0         0
         0         0         0         0         0         0         0         0
         0         0         0         0         0         0         0         0
         0         0         0         0         0         0         0         0
         0         0         0         0         0         0         0         0
         0         0         0         0         0         0         0         0
         0         0         0         0         0         0         0         0
         0         0         0         0         0         0         0         0
         0         0         0         0         0         0         0         0
         0         0         0         0         0         0         0         0
         0         0         0         0         0         0         0         0
         0         0         0         0         0         0         0         0
         0         0         0         0         0         0         0         0
         0         0         0         0         0         0         0         0
         0         0         0         0         0         0         0         0
         0         0         0         0         0         0         0         0
         0         0         0         0         0         0         0         0
         0         0         0         0         0         0         0         0
         0         0         0         0         0         0         0         0
         0         0         0         0         0         0         0         0
         0         0         0         0         0         0         0         0
         0         0         0         0         0         0         0         0
         0         0         0         0         0         0         0         0
         0         0         0         0         0         0         0         0
         0         0         0         0         0         0         0         0
         0         0         0         0         0         0         0         0
         0         0         0         0         0         0         0         0
         0         0         0         0         0         0         0         0
         0         0         0         0         0         0         0         0
         0         0         0         0         0         0         0         0
         0         0         0         0         0         0         0         0
         0         0         0         0         0         0         0         0
         0         0         0         0         0         0         0         0
         0         0         0         0         0         0         0         0
         0         0         0         0         0         0         0         0
         0         0         0         0         0         0         0         0
         0         0         0         0         0         0         0         0
         0         0         0         0         0         0         0         0
         0         0         0         0         0         0         0         0
         0         0         0         0         0         0         0         0
         0         0         0         0         0         0         0         0
         0         0         0         0         0         0         0         0
         0         0         0         0         0         0         0         0
         0         0         0         0         0         0         0         0
         0         0         0         0         0         0         0         0
         0         0         0         0         0         0         0         0
         0         0         0         0         0         0         0         0
         0         0         0         0         0         0         0         0
         0         0         0         0         0         0         0         0
         0         0         0         0         0         0         0         0
         0         0         0         0         0         0         0         0
         0         0         0         0         0         0         0         0
         0         0         0         0         0         0         0         0
         0         0         0         0         0         0         0         0
         0         0         0         0         0         0         0         0
         0         0         0         0         0         0         0         0
         0         0         0         0         0         0         0         0
         0         0         0         0         0         0         0         0
         0         0         0         0         0         0         0         0
         0         0         0         0         0         0         0         0
         0         0         0         0         0         0         0         0
         0         0         0         0         0         0         0         0
         0         0         0         0         0         0         0         0
         0         0         0         0         0         0         0         0
         0         0         0         0         0         0         0         0
         0         0         0         0         0         0         0         0
         0         0         0         0         0         0         0         0
         0         0         0         0         0         0         0         0
         0         0         0         0         0         0         0         0
         0         0         0         0         0         0         0         0
         0         0         0         0         0         0         0         0
         0         0         0         0         0         0         0         0
         0         0         0         0         0         0         0         0
         0         0         0         0         0         0         0         0
         0         0         0         0         0         0         0         0
         0         0         0         0         0         0         0         0
         0         0         0         0         0         0         0         0
         0         0         0         0         0         0         0         0
         0         0         0         0         0         0         0         0
         0         0         0         0         0         0         0         0
         0         0         0         0         0         0         0         0
         0         0         0         0         0         0         0         0
         0         0         0         0         0         0         0         0
         0         0         0         0         0         0         0         0
         0         0         0         0         0         0         0         0
         0         0         0         0         0         0         0         0
         0         0         0         0         0         0         0         0
         0         0         0         0         0         0         0         0
         0         0         0         0         0         0         0         0
         0         0         0         0         0         0         0         0
         0         0         0         0         0         0         0         0
         0         0         0         0         0         0         0         0
         0         0         0         0         0         0         0         0
         0         0         0         0         0         0         0         0
         0         0         0         0         0         0         0         0
         0         0         0         0         0         0         0         0
         0         0         0         0         0         0         0         0
         0         0         0         0         0         0         0         0
         0         0         0         0         0         0         0         0
         0         0         0         0         0         0         0         0
         0         0         0         0         0         0         0         0
         0         0         0         0         0         0         0         0
         0         0         0         0         0         0         0         0
         0         0         0         0         0         0         0         0
         0         0         0         0         0         0         0         0
         0         0         0         0         0         0         0         0
         0         0         0         0         0         0         0         0
         0         0         0         0         0         0         0         0
         0         0         0         0         0         0         0         0
         0         0         0         0         0         0         0         0
         0         0         0         0         0         0         0         0
         0         0         0         0         0         0         0         0
         0         0         0         0         0         0         0         0
         0         0         0         0         0         0         0         0
         0         0         0         0         0         0         0         0
         0         0         0         0         0         0         0         0
         0         0         0         0         0         0         0         0
         0         0         0         0         0         0         0         0
         0         0         0         0         0         0         0         0
         0         0         0         0         0         0         0         0
         0         0         0         0         0         0         0         0
         0         0         0         0         0         0         0         0
         0         0         0         0         0         0         0         0
         0         0         0         0         0         0         0         0
         0         0         0         0         0         0         0         0
         0         0         0         0         0         0         0         0
         0         0         0         0         0         0         0         0
         0         0         0         0         0         0         0         0
         0         0         0         0         0         0         0         0
         0         0         0         0         0         0         0         0
         0         0         0         0         0         0         0         0
         0         0         0         0         0         0         0         0
         0         0         0         0         0         0         0         0
         0         0         0         0         0         0         0         0
         0         0         0         0         0         0         0         0
         0         0         0         0         0         0         0         0
         0         0         0         0         0         0         0         0
         0         0         0         0         0         0         0         0
         0         0         0         0         0         0         0         0
         0         0         0         0         0         0         0         0
         0         0         0         0         0         0         0         0
         0         0         0         0         0         0         0         0
         0         0         0         0         0         0         0         0
         0         0         0         0         0         0         0         0
         0         0         0         0         0         0         0         0
         0         0         0         0         0         0         0         0
         0         0         0         0         0         0         0         0
         0         0         0         0         0         0         0         0
         0         0         0         0         0         0         0         0
         0         0         0         0         0         0         0         0
         0         0         0         0         0         0         0         0
         0         0         0         0         0         0         0         0
         0         0         0         0         0         0         0         0
         0         0         0         0         0         0         0         0
         0         0         0         0         0         0         0         0
         0         0         0         0         0         0         0         0
         0         0         0         0         0         0         0         0
         0         0         0         0         0         0         0         0
         0         0         0         0         0         0         0         0
         0         0         0         0         0         0         0         0
         0         0         0         0         0         0         0         0
         0         0         0         0         0         0         0         0
         0         0         0         0         0         0         0         0
         0         0         0         0         0         0         0         0
         0         0         0         0         0         0         0         0
         0         0         0         0         0         0         0         0
         0         0         0         0         0         0         0         0
         0         0         0         0         0         0         0         0
         0         0         0         0         0         0         0         0
         0         0         0         0         0         0         0         0
         0         0         0         0         0         0         0         0
         0         0         0         0         0         0         0         0
         0         0         0         0         0         0         0         0
         0         0         0         0         0         0         0         0
         0         0         0         0         0         0         0         0
         0         0         0         0         0         0         0         0
         0         0         0         0         0         0         0         0
         0         0         0         0         0         0         0         0
         0         0         0         0         0         0         0         0
         0         0         0         0         0         0         0         0
         0         0         0         0         0         0         0         0
         0         0         0         0         0         0         0         0
         0         0         0         0         0         0         0         0
         0         0         0         0         0         0         0         0
         0         0         0         0         0         0         0         0
         0         0         0         0         0         0         0         0
         0         0         0         0         0         0         0         0
         0         0         0         0         0         0         0         0
         0         0         0         0         0         0         0         0
         0         0         0         0         0         0         0         0
         0         0         0         0         0         0         0         0
         0         0         0         0         0         0         0         0
         0         0         0         0         0         0         0         0
         0         0         0         0         0         0         0         0
         0         0         0         0         0         0         0         0
         0         0         0         0         0         0         0         0
         0         0         0         0         0         0         0         0
         0         0         0         0         0         0         0         0
         0         0         0         0         0         0         0         0
         0         0         0         0         0         0         0         0
         0         0         0         0         0         0         0         0
         0         0         0         0         0         0         0         0
         0         0         0         0         0         0         0         0
         0         0         0         0         0         0         0         0
         0         0         0         0         0         0         0         0
         0         0         0         0         0         0         0         0
         0         0         0         0         0         0         0         0
         0         0         0         0         0         0         0         0
         0         0         0         0         0         0         0         0
         0         0         0         0         0         0         0         0
         0         0         0         0         0         0         0         0
         0         0         0         0         0         0         0         0
         0         0         0         0         0         0         0         0
         0         0         0         0         0         0         0         0
         0         0         0         0         0         0         0         0
         0         0         0         0         0         0         0         0
         0         0         0         0         0         0         0         0
         0         0         0         0         0         0         0         0
         0         0         0         0         0         0         0         0
         0         0         0         0         0         0         0         0
         0         0         0         0         0         0         0         0
         0         0         0         0         0         0         0         0
         0         0         0         0         0         0         0         0
         0         0         0         0         0         0         0         0
         0         0         0         0         0         0         0         0
         0         0         0         0         0         0         0         0
         0         0         0         0         0         0         0         0
         0         0         0         0         0         0         0         0
         0         0         0         0         0         0         0         0
         0         0         0         0         0         0         0         0
         0         0         0         0         0         0         0         0
         0         0         0         0         0         0         0         0
         0         0         0         0         0         0         0         0
         0         0         0         0         0         0         0         0
         0         0         0         0         0         0         0         0
         0         0         0         0         0         0         0         0
         0         0         0         0         0         0         0         0
         0         0         0         0         0         0         0         0
         0         0         0         0         0         0         0         0
         0         0         0         0         0         0         0         0
         0         0         0         0         0         0         0         0
         0         0         0         0         0         0         0         0
         0         0         0         0         0         0         0         0
         0         0         0         0         0         0         0         0
         0         0         0         0         0         0         0         0
         0         0         0         0         0         0         0         0
         0         0         0         0         0         0         0         0
         0         0         0         0         0         0         0         0
         0         0         0         0         0         0         0         0
         0         0         0         0         0         0         0         0
         0         0         0         0         0         0         0         0
         0         0         0         0         0         0         0         0
         0         0         0         0         0         0         0         0
         0         0         0         0         0         0         0         0
         0         0         0         0         0         0         0         0
         0         0         0         0         0         0         0         0
         0         0         0         0         0         0         0         0
         0         0         0         0         0         0         0         0
         0         0         0         0         0         0         0         0
         0         0         0         0         0         0         0         0
         0         0         0         0         0         0         0         0
         0         0         0         0         0         0         0         0
         0         0         0         0         0         0         0         0
         0         0         0         0         0         0         0         0
         0         0         0         0         0         0         0         0
         0         0         0         0         0         0         0         0
         0         0         0         0         0         0         0         0
         0         0         0         0         0         0         0         0
         0         0         0         0         0         0         0         0
         0         0         0         0         0         0         0         0
         0         0         0         0         0         0         0         0
         0         0         0         0         0         0         0         0
         0         0         0         0         0         0         0         0
         0         0         0         0         0         0         0         0
         0         0         0         0         0         0         0         0
         0         0         0         0         0         0         0         0
         0         0         0         0         0         0         0         0
         0         0         0         0         0         0         0         0
         0         0         0         0         0         0         0         0
         0         0         0         0         0         0         0         0
         0         0         0         0         0         0         0         0
         0         0         0         0         0         0         0         0
         0         0         0         0         0         0         0         0
         0         0         0         0         0         0         0         0
         0         0         0         0         0         0         0         0
         0         0         0         0         0         0         0         0
         0         0         0         0         0         0         0         0
         0         0         0         0         0         0         0         0
         0         0         0         0         0         0         0         0
         0         0         0         0         0         0         0         0
         0         0         0         0         0         0         0         0
         0         0         0         0         0         0         0         0
         0         0         0         0         0         0         0         0
         0         0         0         0         0         0         0         0
         0         0         0         0         0         0         0         0
         0         0         0         0         0         0         0         0
         0         0         0         0         0         0         0         0
         0         0         0         0         0         0         0         0
         0         0         0         0         0         0         0         0
         0         0         0         0         0         0         0         0
         0         0         0         0         0         0         0         0
         0         0         0         0         0         0         0         0
         0         0         0         0         0         0         0         0
         0         0         0         0         0         0         0         0
         0         0         0         0         0         0         0         0
         0         0         0         0         0         0         0         0
         0         0         0         0         0         0         0         0
         0         0         0         0         0         0         0         0
         0         0         0         0         0         0         0         0
         0         0         0         0         0         0         0         0
         0         0         0         0         0         0         0         0
         0         0         0         0         0         0         0         0
         0         0         0         0         0         0         0         0
         0         0         0         0         0         0         0         0
         0         0         0         0         0         0         0         0
         0         0         0         0         0         0         0         0
         0         0         0         0         0         0         0         0
         0         0         0         0         0         0         0         0
         0         0         0         0         0         0         0         0
         0         0         0         0         0         0         0         0
         0         0         0         0         0         0         0         0
         0         0         0         0         0         0         0         0
         0         0         0         0         0         0         0         0
         0         0         0         0         0         0         0         0
         0         0         0         0         0         0         0         0
         0         0         0         0         0         0         0         0
         0         0         0         0         0         0         0         0
         0         0         0         0         0         0         0         0
         0         0         0         0         0         0         0         0
         0         0         0         0         0         0         0         0
         0         0         0         0         0         0         0         0
         0         0         0         0         0         0         0         0
         0         0         0         0         0         0         0         0
         0         0         0         0         0         0         0         0
         0         0         0         0         0         0         0         0
         0         0         0         0         0         0         0         0
         0         0         0         0         0         0         0         0
         0         0         0         0         0         0         0         0
         0         0         0         0         0         0         0         0
         0         0         0         0         0         0         0         0
         0         0         0         0         0         0         0         0
         0         0         0         0         0         0         0         0
         0         0         0         0         0         0         0         0
         0         0         0         0         0         0         0         0
         0         0         0         0         0         0         0         0
         0         0         0         0         0         0         0         0
         0         0         0         0         0         0         0         0
         0         0         0         0         0         0         0         0
         0         0         0         0         0         0         0         0
         0         0         0         0         0         0         0         0
         0         0         0         0         0         0         0         0
         0         0         0         0         0         0         0         0
         0         0         0         0         0         0         0         0
         0         0         0         0         0         0         0         0
         0         0         0         0         0         0         0         0
         0         0         0         0         0         0         0         0
         0         0         0         0         0         0         0         0
         0         0         0         0         0         0         0         0
         0         0         0         0         0         0         0         0
         0         0         0         0         0         0         0         0
         0         0         0         0         0         0         0         0
         0         0         0         0         0         0         0         0
         0         0         0         0         0         0         0         0
         0         0         0         0         0         0         0         0
         0         0         0         0         0         0         0         0
         0         0         0         0         0         0         0         0
         0         0         0         0         0         0         0         0
         0         0         0         0         0         0         0         0
         0         0         0         0         0         0         0         0
         0         0         0         0         0         0         0         0
         0         0         0         0         0         0         0         0
         0         0         0         0         0         0         0         0
         0         0         0         0         0         0         0         0
         0         0         0         0         0         0         0         0
         0         0         0         0         0         0         0         0
         0         0         0         0         0         0         0         0
         0         0         0         0         0         0         0         0
         0         0         0         0         0         0         0         0
         0         0         0         0         0         0         0         0
         0         0         0         0         0         0         0         0
         0         0         0         0         0         0         0         0
         0         0         0         0         0         0         0         0
         0         0         0         0         0         0         0         0
         0         0         0         0         0         0         0         0
         0         0         0         0         0         0         0         0
         0         0         0         0         0         0         0         0
         0         0         0         0         0         0         0         0
         0         0         0         0         0         0         0         0
         0         0         0         0         0         0         0         0
         0         0         0         0         0         0         0         0
         0         0         0         0         0         0         0         0
         0         0         0         0         0         0         0         0
         0         0         0         0         0         0         0         0
         0         0         0         0         0         0         0         0
         0         0         0         0         0         0         0         0
         0         0         0         0         0         0         0         0
         0         0         0         0         0         0         0         0
         0         0         0         0         0         0         0         0
         0         0         0         0         0         0         0         0
         0         0         0         0         0         0         0         0
         0         0         0         0         0         0         0         0
         0         0         0         0         0         0         0         0
         0         0         0         0         0         0         0         0
         0         0         0         0         0         0         0         0
         0         0         0         0         0         0         0         0
         0         0         0         0         0         0         0         0
         0         0         0         0         0         0         0         0
         0         0         0         0         0         0         0         0
         0         0         0         0         0         0         0         0
         0         0         0         0         0         0         0         0
         0         0         0         0         0         0         0         0
         0         0         0         0         0         0         0         0
         0         0         0         0         0         0         0         0
         0         0         0         0         0         0         0         0
         0         0         0         0         0         0         0         0
         0         0         0         0         0         0         0         0
         0         0         0         0         0         0         0         0
         0         0         0         0         0         0         0         0
         0         0         0         0         0         0         0         0
         0         0         0         0         0         0         0         0
         0         0         0         0         0         0         0         0
         0         0         0         0         0         0         0         0
         0         0         0         0         0         0         0         0
         0         0         0         0         0         0         0         0
         0         0         0         0         0         0         0         0
         0         0         0         0         0         0         0         0
         0         0         0         0         0         0         0         0
         0         0         0         0         0         0         0         0
         0         0         0         0         0         0         0         0
         0         0         0         0         0         0         0         0
         0         0         0         0         0         0         0         0
         0         0         0         0         0         0         0         0
         0         0         0         0         0         0         0         0
         0         0         0         0         0         0         0         0
         0         0         0         0         0         0         0         0
         0         0         0         0         0         0         0         0
         0         0         0         0         0         0         0         0
         0         0         0         0         0         0         0         0
         0         0         0         0         0         0         0         0
         0         0         0         0         0         0         0         0
         0         0         0         0         0         0         0         0
         0         0         0         0         0         0         0         0
         0         0         0         0         0         0         0         0
         0         0         0         0         0         0         0         0
         0         0         0         0         0         0         0         0
         0         0         0         0         0         0         0         0
         0         0         0         0         0         0         0         0
         0         0         0         0         0         0         0         0
         0         0         0         0         0         0         0         0
         0         0         0         0         0         0         0         0
         0         0         0         0         0         0         0         0
         0         0         0         0         0         0         0         0
         0         0         0         0         0         0         0         0
         0         0         0         0         0         0         0         0
         0         0         0         0         0         0         0         0
         0         0         0         0         0         0         0         0
         0         0         0         0         0         0         0         0
         0         0         0         0         0         0         0         0
         0         0         0         0         0         0         0         0
         0         0         0         0         0         0         0         0
         0         0         0         0         0         0         0         0
         0         0         0         0         0         0         0         0
         0         0         0         0         0         0         0         0
         0         0         0         0         0         0         0         0
         0         0         0         0         0         0         0         0
         0         0         0         0         0         0         0         0
         0         0         0         0         0         0         0         0
         0         0         0         0         0         0         0         0
         0         0         0         0         0         0         0         0
         0         0         0         0         0         0         0         0
         0         0         0         0         0         0         0         0
         0         0         0         0         0         0         0         0
         0         0         0         0         0         0         0         0
         0         0         0         0         0         0         0         0
         0         0         0         0         0         0         0         0
         0         0         0         0         0         0         0         0
         0         0         0         0         0         0         0         0
         0         0         0         0         0         0         0         0
         0         0         0         0         0         0         0         0
         0         0         0         0         0         0         0         0
         0         0         0         0         0         0         0         0
         0         0         0         0         0         0         0         0
         0         0         0         0         0         0         0         0
         0         0         0         0         0         0         0         0
         0         0         0         0         0         0         0         0
         0         0         0         0         0         0         0         0
         0         0         0         0         0         0         0         0
         0         0         0         0         0         0         0         0
         0         0         0         0         0         0         0         0
         0         0         0         0         0         0         0         0
         0         0         0         0         0         0         0         0
         0         0         0         0         0         0         0         0
         0         0         0         0         0         0         0         0
         0         0         0         0         0         0         0         0
         0         0         0         0         0         0         0         0
         0         0         0         0         0         0         0         0
         0         0         0         0         0         0         0         0
         0         0         0         0         0         0         0         0
         0         0         0         0         0         0         0         0
         0         0         0         0         0         0         0         0
         0         0         0         0         0         0         0         0
         0         0         0         0         0         0         0         0
         0         0         0         0         0         0         0         0
         0         0         0         0         0         0         0         0
         0         0         0         0         0         0         0         0
         0         0         0         0         0         0         0         0
         0         0         0         0         0         0         0         0
         0         0         0         0         0         0         0         0
         0         0         0         0         0         0         0         0
         0         0         0         0         0         0         0         0
         0         0         0         0         0         0         0         0
         0         0         0         0         0         0         0         0
         0         0         0         0         0         0         0         0
         0         0         0         0         0         0         0         0
         0         0         0         0         0         0         0         0
         0         0         0         0         0         0         0         0
         0         0         0         0         0         0         0         0
         0         0         0         0         0         0         0         0
         0         0         0         0         0         0         0         0
         0         0         0         0         0         0         0         0
         0         0         0         0         0         0         0         0
         0         0         0         0         0         0         0         0
         0         0         0         0         0         0         0         0
         0         0         0         0         0         0         0         0
         0         0         0         0         0         0         0         0
         0         0         0         0         0         0         0         0
         0         0         0         0         0         0         0         0
         0         0         0         0         0         0         0         0
         0         0         0         0         0         0         0         0
         0         0         0         0         0         0         0         0
         0         0         0         0         0         0         0         0
         0         0         0         0         0         0         0         0
         0         0         0         0         0         0         0         0
         0         0         0         0         0         0         0         0
         0         0         0         0         0         0         0         0
         0         0         0         0         0         0         0         0
         0         0         0         0         0         0         0         0
         0         0         0         0         0         0         0         0
         0         0         0         0         0         0         0         0
         0         0         0         0         0         0         0         0
         0         0         0         0         0         0         0         0
         0         0         0         0         0         0         0         0
         0         0         0         0         0         0         0         0
         0         0         0         0         0         0         0         0
         0         0         0         0         0         0         0         0
         0         0         0         0         0         0         0         0
         0         0         0         0         0         0         0         0
         0         0         0         0         0         0         0         0
         0         0         0         0         0         0         0         0
         0         0         0         0         0         0         0         0
         0         0         0         0         0         0         0         0
         0         0         0         0         0         0         0         0
         0         0         0         0         0         0         0         0
         0         0         0         0         0         0         0         0
         0         0         0         0         0         0         0         0
         0         0         0         0         0         0         0         0
         0         0         0         0         0         0         0         0
         0         0         0         0         0         0         0         0
         0         0         0         0         0         0         0         0
         0         0         0         0         0         0         0         0
         0         0         0         0         0         0         0         0
         0         0         0         0         0         0         0         0
         0         0         0         0         0         0         0         0
         0         0         0         0         0         0         0         0
         0         0         0         0         0         0         0         0
         0         0         0         0         0         0         0         0
         0         0         0         0         0         0         0         0
         0         0         0         0         0         0         0         0
         0         0         0         0         0         0         0         0
         0         0         0         0         0         0         0         0
         0         0         0         0         0         0         0         0
         0         0         0         0         0         0         0         0
         0         0         0         0         0         0         0         0
         0         0         0         0         0         0         0         0
         0         0         0         0         0         0         0         0
         0         0         0         0         0         0         0         0
         0         0         0         0         0         0         0         0
         0         0         0         0         0         0         0         0
         0         0         0         0         0         0         0         0
         0         0         0         0         0         0         0         0
         0         0         0         0         0         0         0         0
         0         0         0         0         0         0         0         0
         0         0         0         0         0         0         0         0
         0         0         0         0         0         0         0         0
         0         0         0         0         0         0         0         0
         0         0         0         0         0         0         0         0
         0         0         0         0         0         0         0         0
         0         0         0         0         0         0         0         0
         0         0         0         0         0         0         0         0
         0         0         0         0         0         0         0         0
         0         0         0         0         0         0         0         0
         0         0         0         0         0         0         0         0
         0         0         0         0         0         0         0         0
         0         0         0         0         0         0         0         0
         0         0         0         0         0         0         0         0
         0         0         0         0         0         0         0         0
         0         0         0         0         0         0         0         0
         0         0         0         0         0         0         0         0
         0         0         0         0         0         0         0         0
         0         0         0         0         0         0         0         0
         0         0         0         0         0         0         0         0
         0         0         0         0         0         0         0         0
         0         0         0         0         0         0         0         0
         0         0         0         0         0         0         0         0
         0         0         0         0         0         0         0         0
         0         0         0         0         0         0         0         0
         0         0         0         0         0         0         0         0
         0         0         0         0         0         0         0         0
         0         0         0         0         0         0         0         0
         0         0         0         0         0         0         0         0
         0         0         0         0         0         0         0         0
         0         0         0         0         0         0         0         0
         0         0         0         0         0         0         0         0
         0         0         0         0         0         0         0         0
         0         0         0         0         0         0         0         0
         0         0         0         0         0         0         0         0
         0         0         0         0         0         0         0         0
         0         0         0         0         0         0         0         0
         0         0         0         0         0         0         0         0
         0         0         0         0         0         0         0         0
         0         0         0         0         0         0         0         0
         0         0         0         0         0         0         0         0
         0         0         0         0         0         0         0         0
         0         0         0         0         0         0         0         0
         0         0         0         0         0         0         0         0
         0         0         0         0         0         0         0         0
         0         0         0         0         0         0         0         0
         0         0         0         0         0         0         0         0
         0         0         0         0         0         0         0         0
         0         0         0         0         0         0         0         0
         0         0         0         0         0         0         0         0
         0         0         0         0         0         0         0         0
         0         0         0         0         0         0         0         0
         0         0         0         0         0         0         0         0
         0         0         0         0         0         0         0         0
         0         0         0         0         0         0         0         0
         0         0         0         0         0         0         0         0
         0         0         0         0         0         0         0         0
         0         0         0         0         0         0         0         0
         0         0         0         0         0         0         0         0
         0         0         0         0         0         0         0         0
         0         0         0         0         0         0         0         0
         0         0         0         0         0         0         0         0
         0         0         0         0         0         0         0         0
         0         0         0         0         0         0         0         0
         0         0         0         0         0         0         0         0
         0         0         0         0         0         0         0         0
         0         0         0         0         0         0         0         0
         0         0         0         0         0         0         0         0
         0         0         0         0         0         0         0         0
         0         0         0         0         0         0         0         0
         0         0         0         0         0         0         0         0
         0         0         0         0         0         0         0         0
         0         0         0         0         0         0         0         0
         0         0         0         0         0         0         0         0
         0         0         0         0         0         0         0         0
         0         0         0         0         0         0         0         0
         0         0         0         0         0         0         0         0
         0         0         0         0         0         0         0         0
         0         0         0         0         0         0         0         0
         0         0         0         0         0         0         0         0
         0         0         0         0         0         0         0         0
         0         0         0         0         0         0         0         0
         0         0         0         0         0         0         0         0
         0         0         0         0         0         0         0         0
         0         0         0         0         0         0         0         0
         0         0         0         0         0         0         0         0
         0         0         0         0         0         0         0         0
         0         0         0         0         0         0         0         0
         0         0         0         0         0         0         0         0
         0         0         0         0         0         0         0         0
         0         0         0         0         0         0         0         0
         0         0         0         0         0         0         0         0
         0         0         0         0         0         0         0         0
         0         0         0         0         0         0         0         0
         0         0         0         0         0         0         0         0
         0         0         0         0         0         0         0         0
         0         0         0         0         0         0         0         0
         0         0         0         0         0         0         0         0
         0         0         0         0         0         0         0         0
         0         0         0         0         0         0         0         0
         0         0         0         0         0         0         0         0
         0         0         0         0         0         0         0         0
         0         0         0         0         0         0         0         0
         0         0         0         0         0         0         0         0
         0         0         0         0         0         0         0         0
         0         0         0         0         0         0         0         0
         0         0         0         0         0         0         0         0
         0         0         0         0         0         0         0         0
         0         0         0         0         0         0         0         0
         0         0         0         0         0         0         0         0
         0         0         0         0         0         0         0         0
         0         0         0         0         0         0         0         0
         0         0         0         0         0         0         0         0
         0         0         0         0         0         0         0         0
         0         0         0         0         0         0         0         0
         0         0         0         0         0         0         0         0
         0         0         0         0         0         0         0         0
         0         0         0         0         0         0         0         0
         0         0         0         0         0         0         0         0
         0         0         0         0         0         0         0         0
         0         0         0         0         0         0         0         0
         0         0         0         0         0         0         0         0
         0         0         0         0         0         0         0         0
         0         0         0         0         0         0         0         0
         0         0         0         0         0         0         0         0
         0         0         0         0         0         0         0         0
         0         0         0         0         0         0         0         0
         0         0         0         0         0         0         0         0
         0         0         0         0         0         0         0         0
         0         0         0         0         0         0         0         0
         0         0         0         0         0         0         0         0
         0         0         0         0         0         0         0         0
         0         0         0         0         0         0         0         0
         0         0         0         0         0         0         0         0
         0         0         0         0         0         0         0         0
         0         0         0         0         0         0         0         0
         0         0         0         0         0         0         0         0
         0         0         0         0         0         0         0         0
         0         0         0         0         0         0         0         0
         0         0         0         0         0         0         0         0
         0         0         0         0         0         0         0         0
         0         0         0         0         0         0         0         0
         0         0         0         0         0         0         0         0
         0         0         0         0         0         0         0         0
         0         0         0         0         0         0         0         0
         0         0         0         0         0         0         0         0
         0         0         0         0         0         0         0         0
         0         0         0         0         0         0         0         0
         0         0         0         0         0         0         0         0
         0         0         0         0         0         0         0         0
         0         0         0         0         0         0         0         0
         0         0         0         0         0         0         0         0
         0         0         0         0         0         0         0         0
         0         0         0         0         0         0         0         0
         0         0         0         0         0         0         0         0
         0         0         0         0         0         0         0         0
         0         0         0         0         0         0         0         0
         0         0         0         0         0         0         0         0
         0         0         0         0         0         0         0         0
         0         0         0         0         0         0         0         0
         0         0         0         0         0         0         0         0
         0         0         0         0         0         0         0         0
         0         0         0         0         0         0         0         0
         0         0         0         0         0         0         0         0
         0         0         0         0         0         0         0         0
         0         0         0         0         0         0         0         0
         0         0         0         0         0         0         0         0
         0         0         0         0         0         0         0         0
         0         0         0         0         0         0         0         0
         0         0         0         0         0         0         0         0
         0         0         0         0         0         0         0         0
         0         0         0         0         0         0         0         0
         0         0         0         0         0         0         0         0
         0         0         0         0         0         0         0         0
         0         0         0         0         0         0         0         0
         0         0         0         0         0         0         0         0
         0         0         0         0         0         0         0         0
         0         0         0         0         0         0         0         0
         0         0         0         0         0         0         0         0
         0         0         0         0         0         0         0         0
         0         0         0         0         0         0         0         0
         0         0         0         0         0         0         0         0
         0         0         0         0         0         0         0         0
         0         0         0         0         0         0         0         0
         0         0         0         0         0         0         0         0
         0         0         0         0         0         0         0         0
         0         0         0         0         0         0         0         0
         0         0         0         0         0         0         0         0
         0         0         0         0         0         0         0         0
         0         0         0         0         0         0         0         0
         0         0         0         0         0         0         0         0
         0         0         0         0         0         0         0         0
         0         0         0         0         0         0         0         0
         0         0         0         0         0         0         0         0
         0         0         0         0         0         0         0         0
         0         0         0         0         0         0         0         0
         0         0         0         0         0         0         0         0
         0         0         0         0         0         0         0         0
         0         0         0         0         0         0         0         0
         0         0         0         0         0         0         0         0
         0         0         0         0         0         0         0         0
         0         0         0         0         0         0         0         0
         0         0         0         0         0         0         0         0
         0         0         0         0         0         0         0         0
         0         0         0         0         0         0         0         0
         0         0         0         0         0         0         0         0
         0         0         0         0         0         0         0         0
         0         0         0         0         0         0         0         0
         0         0         0         0         0         0         0         0
         0         0         0         0         0         0         0         0
         0         0         0         0         0         0         0         0
         0         0         0         0         0         0         0         0
         0         0         0         0         0         0         0         0
         0         0         0         0         0         0         0         0
         0         0         0         0         0         0         0         0
         0         0         0         0         0         0         0         0
         0         0         0         0         0         0         0         0
         0         0         0         0         0         0         0         0
         0         0         0         0         0         0         0         0
         0         0         0         0         0         0         0         0
         0         0         0         0         0         0         0         0
         0         0         0         0         0         0         0         0
         0         0         0         0         0         0         0         0
         0         0         0         0         0         0         0         0
         0         0         0         0         0         0         0         0
         0         0         0         0         0         0         0         0
         0         0         0         0         0         0         0         0
         0         0         0         0         0         0         0         0
         0         0         0         0         0         0         0         0
         0         0         0         0         0         0         0         0
         0         0         0         0         0         0         0         0
         0         0         0         0         0         0         0         0
         0         0         0         0         0         0         0         0
         0         0         0         0         0         0         0         0
         0         0         0         0         0         0         0         0
         0         0         0         0         0         0         0         0
         0         0         0         0         0         0         0         0
         0         0         0         0         0         0         0         0
         0         0         0         0         0         0         0         0
         0         0         0         0         0         0         0         0
         0         0         0         0         0         0         0         0
         0         0         0         0         0         0         0         0
         0         0         0         0         0         0         0         0
         0         0         0         0         0         0         0         0
         0         0         0         0         0         0         0         0
         0         0         0         0         0         0         0         0
         0         0         0         0         0         0         0         0
         0         0         0         0         0         0         0         0
         0         0         0         0         0         0         0         0
         0         0         0         0         0         0         0         0
         0         0         0         0         0         0         0         0
         0         0         0         0         0         0         0         0
         0         0         0         0         0         0         0         0
         0         0         0         0         0         0         0         0
         0         0         0         0         0         0         0         0
         0         0         0         0         0         0         0         0
         0         0         0         0         0         0         0         0
         0         0         0         0         0         0         0         0
         0         0         0         0         0         0         0         0
         0         0         0         0         0         0         0         0
         0         0         0         0         0         0         0         0
         0         0         0         0         0         0         0         0
         0         0         0         0         0         0         0         0
         0         0         0         0         0         0         0         0
         0         0         0         0         0         0         0         0
         0         0         0         0         0         0         0         0
         0         0         0         0         0         0         0         0
         0         0         0         0         0         0         0         0
         0         0         0         0         0         0         0         0
         0         0         0         0         0         0         0         0
         0         0         0         0         0         0         0         0
         0         0         0         0         0         0         0         0
         0         0         0         0         0         0         0         0
         0         0         0         0         0         0         0         0
         0         0         0         0         0         0         0         0
         0         0         0         0         0         0         0         0
         0         0         0         0         0         0         0         0
         0         0         0         0         0         0         0         0
         0         0         0         0         0         0         0         0
         0         0         0         0         0         0         0         0
         0         0         0         0         0         0         0         0
         0         0         0         0         0         0         0         0
         0         0         0         0         0         0         0         0
         0         0         0         0         0         0         0         0
         0         0         0         0         0         0         0         0
         0         0         0         0         0         0         0         0
         0         0         0         0         0         0         0         0
         0         0         0         0         0         0         0         0
         0         0         0         0         0         0         0         0
         0         0         0         0         0         0         0         0
         0         0         0         0         0         0         0         0
         0         0         0         0         0         0         0         0
         0         0         0         0         0         0         0         0
         0         0         0         0         0         0         0         0
         0         0         0         0         0         0         0         0
         0         0         0         0         0         0         0         0
         0         0         0         0         0         0         0         0
         0         0         0         0         0         0         0         0
         0         0         0         0         0         0         0         0
         0         0         0         0         0         0         0         0
         0         0         0         0         0         0         0         0
         0         0         0         0         0         0         0         0
         0         0         0         0         0         0         0         0
         0         0         0         0         0         0         0         0
         0         0         0         0         0         0         0         0
         0         0         0         0         0         0         0         0
         0         0         0         0         0         0         0         0
         0         0         0         0         0         0         0         0
         0         0         0         0         0         0         0         0
         0         0         0         0         0         0         0         0
         0         0         0         0         0         0         0         0
         0         0         0         0         0         0         0         0
         0         0         0         0         0         0         0         0
         0         0         0         0         0         0         0         0
         0         0         0         0         0         0         0         0
         0         0         0         0         0         0         0         0
         0         0         0         0         0         0         0         0
         0         0         0         0         0         0         0         0
         0         0         0         0         0         0         0         0
         0         0         0         0         0         0         0         0
         0         0         0         0         0         0         0         0
         0         0         0         0         0         0         0         0
         0         0         0         0         0         0         0         0
         0         0         0         0         0         0         0         0
         0         0         0         0         0         0         0         0
         0         0         0         0         0         0         0         0
         0         0         0         0         0         0         0         0
         0         0         0         0         0         0         0         0
         0         0         0         0         0         0         0         0
         0         0         0         0         0         0         0         0
         0         0         0         0         0         0         0         0
         0         0         0         0         0         0         0         0
         0         0         0         0         0         0         0         0
         0         0         0         0         0         0         0         0
         0         0         0         0         0         0         0         0
         0         0         0         0         0         0         0         0
         0         0         0         0         0         0         0         0
         0         0         0         0         0         0         0         0
         0         0         0         0         0         0         0         0
         0         0         0         0         0         0         0         0
         0         0         0         0         0         0         0         0
         0         0         0         0         0         0         0         0
         0         0         0         0         0         0         0         0
         0         0         0         0         0         0         0         0
         0         0         0         0         0         0         0         0
         0         0         0         0         0         0         0         0
         0         0         0         0         0         0         0         0
         0         0         0         0         0         0         0         0
         0         0         0         0         0         0         0         0
         0         0         0         0         0         0         0         0
         0         0         0         0         0         0         0         0
         0         0         0         0         0         0         0         0
         0         0         0         0         0         0         0         0
         0         0         0         0         0         0         0         0
         0         0         0         0         0         0         0         0
         0         0         0         0         0         0         0         0
         0         0         0         0         0         0         0         0
         0         0         0         0         0         0         0         0
         0         0         0         0         0         0         0         0
         0         0         0         0         0         0         0         0
         0         0         0         0         0         0         0         0
         0         0         0         0         0         0         0         0
         0         0         0         0         0         0         0         0
         0         0         0         0         0         0         0         0
         0         0         0         0         0         0         0         0
         0         0         0         0         0         0         0         0
         0         0         0         0         0         0         0         0
         0         0         0         0         0         0         0         0
         0         0         0         0         0         0         0         0
         0         0         0         0         0         0         0         0
         0         0         0         0         0         0         0         0
         0         0         0         0         0         0         0         0
         0         0         0         0         0         0         0         0
         0         0         0         0         0         0         0         0
         0         0         0         0         0         0         0         0
         0         0         0         0         0         0         0         0
         0         0         0         0         0         0         0         0
         0         0         0         0         0         0         0         0
         0         0         0         0         0         0         0         0
         0         0         0         0         0         0         0         0
         0         0         0         0         0         0         0         0
         0         0         0         0         0         0         0         0
         0         0         0         0         0         0         0         0
         0         0         0         0         0         0         0         0
         0         0         0         0         0         0         0         0
         0         0         0         0         0         0         0         0
         0         0         0         0         0         0         0         0
         0         0         0         0         0         0         0         0
         0         0         0         0         0         0         0         0
         0         0         0         0         0         0         0         0
         0         0         0         0         0         0         0         0
         0         0         0         0         0         0         0         0
         0         0         0         0         0         0         0         0
         0         0         0         0         0         0         0         0
         0         0         0         0         0         0         0         0
         0         0         0         0         0         0         0         0
         0         0         0         0         0         0         0         0
         0         0         0         0         0         0         0         0
         0         0         0         0         0         0         0         0
         0         0         0         0         0         0         0         0
         0         0         0         0         0         0         0         0
         0         0         0         0         0         0         0         0
         0         0         0         0         0         0         0         0
         0         0         0         0         0         0         0         0
         0         0         0         0         0         0         0         0
         0         0         0         0         0         0         0         0
         0         0         0         0         0         0         0         0
         0         0         0         0         0         0         0         0
         0         0         0         0         0         0         0         0
         0         0         0         0         0         0         0         0
         0         0         0         0         0         0         0         0
         0         0         0         0         0         0         0         0
         0         0         0         0         0         0         0         0
         0         0         0         0         0         0         0         0
         0         0         0         0         0         0         0         0
         0         0         0         0         0         0         0         0
         0         0         0         0         0         0         0         0
         0         0         0         0         0         0         0         0
         0         0         0         0         0         0         0         0
         0         0         0         0         0         0         0         0
         0         0         0         0         0         0         0         0
         0         0         0         0         0         0         0         0
         0         0         0         0         0         0         0         0
         0         0         0         0         0         0         0         0
         0         0         0         0         0         0         0         0
         0         0         0         0         0         0         0         0
         0         0         0         0         0         0         0         0
         0         0         0         0         0         0         0         0
         0         0         0         0         0         0         0         0
         0         0         0         0         0         0         0         0
         0         0         0         0         0         0         0         0
         0         0         0         0         0         0         0         0
         0         0         0         0         0         0         0         0
         0         0         0         0         0         0         0         0
         0         0         0         0         0         0         0         0
         0         0         0         0         0         0         0         0
         0         0         0         0         0         0         0         0
         0         0         0         0         0         0         0         0
         0         0         0         0         0         0         0         0
         0         0         0         0         0         0         0         0
         0         0         0         0         0         0         0         0
         0         0         0         0         0         0         0         0
         0         0         0         0         0         0         0         0
         0         0         0         0         0         0         0         0
         0         0         0         0         0         0         0         0
         0         0         0         0         0         0         0         0
         0         0         0         0         0         0         0         0
         0         0         0         0         0         0         0         0
         0         0         0         0         0         0         0         0
         0         0         0         0         0         0         0         0
         0         0         0         0         0         0         0         0
         0         0         0         0         0         0         0         0
         0         0         0         0         0         0         0         0
         0         0         0         0         0         0         0         0
         0         0         0         0         0         0         0         0
         0         0         0         0         0         0         0         0
         0         0         0         0         0         0         0         0
         0         0         0         0         0         0         0         0
         0         0         0         0         0         0         0         0
         0         0         0         0         0         0         0         0
         0         0         0         0         0         0         0         0
         0         0         0         0         0         0         0         0
         0         0         0         0         0         0         0         0
         0         0         0         0         0         0         0         0
         0         0         0         0         0         0         0         0
         0         0         0         0         0         0         0         0
         0         0         0         0         0         0         0         0
         0         0         0         0         0         0         0         0
         0         0         0         0         0         0         0         0
         0         0         0         0         0         0         0         0
         0         0         0         0         0         0         0         0
         0         0         0         0         0         0         0         0
         0         0         0         0         0         0         0         0
         0         0         0         0         0         0         0         0
         0         0         0         0         0         0         0         0
         0         0         0         0         0         0         0         0
         0         0         0         0         0         0         0         0
         0         0         0         0         0         0         0         0
         0         0         0         0         0         0         0         0
         0         0         0         0         0         0         0         0
         0         0         0         0         0         0         0         0
         0         0         0         0         0         0         0         0
         0         0         0         0         0         0         0         0
         0         0         0         0         0         0         0         0
         0         0         0         0         0         0         0         0
         0         0         0         0         0         0         0         0
         0         0         0         0         0         0         0         0
         0         0         0         0         0         0         0         0
         0         0         0         0         0         0         0         0
         0         0         0         0         0         0         0         0
         0         0         0         0         0         0         0         0
         0         0         0         0         0         0         0         0
         0         0         0         0         0         0         0         0
         0         0         0         0         0         0         0         0
         0         0         0         0         0         0         0         0
         0         0         0         0         0         0         0         0
         0         0         0         0         0         0         0         0
         0         0         0         0         0         0         0         0
         0         0         0         0         0         0         0         0
         0         0         0         0         0         0         0         0
         0         0         0         0         0         0         0         0
         0         0         0         0         0         0         0         0
         0         0         0         0         0         0         0         0
         0         0         0         0         0         0         0         0
         0         0         0         0         0         0         0         0
         0         0         0         0         0         0         0         0
         0         0         0         0         0         0         0         0
         0         0         0         0         0         0         0         0
         0         0         0         0         0         0         0         0
         0         0         0         0         0         0         0         0
         0         0         0         0         0         0         0         0
         0         0         0         0         0         0         0         0
         0         0         0         0         0         0         0         0
         0         0         0         0         0         0         0         0
         0         0         0         0         0         0         0         0
         0         0         0         0         0         0         0         0
         0         0         0         0         0         0         0         0
         0         0         0         0         0         0         0         0
         0         0         0         0         0         0         0         0
         0         0         0         0         0         0         0         0
         0         0         0         0         0         0         0         0
         0         0         0         0         0         0         0         0
         0         0         0         0         0         0         0         0
         0         0         0         0         0         0         0         0
         0         0         0         0         0         0         0         0
         0         0         0         0         0         0         0         0
         0         0         0         0         0         0         0         0
         0         0         0         0         0         0         0         0
         0         0         0         0         0         0         0         0
         0         0         0         0         0         0         0         0
         0         0         0         0         0         0         0         0
         0         0         0         0         0         0         0         0
         0         0         0         0         0         0         0         0
         0         0         0         0         0         0         0         0
         0         0         0         0         0         0         0         0
         0         0         0         0         0         0         0         0
         0         0         0         0         0         0         0         0
         0         0         0         0         0         0         0         0
         0         0         0         0         0         0         0         0
         0         0         0         0         0         0         0         0
         0         0         0         0         0         0         0         0
         0         0         0         0         0         0         0         0
         0         0         0         0         0         0         0         0
         0         0         0         0         0         0         0         0
         0         0         0         0         0         0         0         0
         0         0         0         0         0         0         0         0
         0         0         0         0         0         0         0         0
         0         0         0         0         0         0         0         0
         0         0         0         0         0         0         0         0
         0         0         0         0         0         0         0         0
         0         0         0         0         0         0         0         0
         0         0         0         0         0         0         0         0
         0         0         0         0         0         0         0         0
         0         0         0         0         0         0         0         0
         0         0         0         0         0         0         0         0
         0         0         0         0         0         0         0         0
         0         0         0         0         0         0         0         0
         0         0         0         0         0         0         0         0
         0         0         0         0         0         0         0         0
         0         0         0         0         0         0         0         0
         0         0         0         0         0         0         0         0
         0         0         0         0         0         0         0         0
         0         0         0         0         0         0         0         0
         0         0         0         0         0         0         0         0
         0         0         0         0         0         0         0         0
         0         0         0         0         0         0         0         0
         0         0         0         0         0         0         0         0
         0         0         0         0         0         0         0         0
         0         0         0         0         0         0         0         0
         0         0         0         0         0         0         0         0
         0         0         0         0         0         0         0         0
         0         0         0         0         0         0         0         0
         0         0         0         0         0         0         0         0
         0         0         0         0         0         0         0         0
         0         0         0         0         0         0         0         0
         0         0         0         0         0         0         0         0
         0         0         0         0         0         0         0         0
         0         0         0         0         0         0         0         0
         0         0         0         0         0         0         0         0
         0         0         0         0         0         0         0         0
         0         0         0         0         0         0         0         0
         0         0         0         0         0         0         0         0
         0         0         0         0         0         0         0         0
         0         0         0         0         0         0         0         0
         0         0         0         0         0         0         0         0
         0         0         0         0         0         0         0         0
         0         0         0         0         0         0         0         0
         0         0         0         0         0         0         0         0
         0         0         0         0         0         0         0         0
         0         0         0         0         0         0         0         0
         0         0         0         0         0         0         0         0
         0         0         0         0         0         0         0         0
         0         0         0         0         0         0         0         0
         0         0         0         0         0         0         0         0
         0         0         0         0         0         0         0         0
         0         0         0         0         0         0         0         0
         0         0         0         0         0         0         0         0
         0         0         0         0         0         0         0         0
         0         0         0         0         0         0         0         0
         0         0         0         0         0         0         0         0
         0         0         0         0         0         0         0         0
         0         0         0         0         0         0         0         0
         0         0         0         0         0         0         0         0
         0         0         0         0         0         0         0         0
         0         0         0         0         0         0         0         0
         0         0         0         0         0         0         0         0
         0         0         0         0         0         0         0         0
         0         0         0         0         0         0         0         0
         0         0         0         0         0         0         0         0
         0         0         0         0         0         0         0         0
         0         0         0         0         0         0         0         0
         0         0         0         0         0         0         0         0
         0         0         0         0         0         0         0         0
         0         0         0         0         0         0         0         0
         0         0         0         0         0         0         0         0
         0         0         0         0         0         0         0         0
         0         0         0         0         0         0         0         0
         0         0         0         0         0         0         0         0
         0         0         0         0         0         0         0         0
         0         0         0         0         0         0         0         0
         0         0         0         0         0         0         0         0
         0         0         0         0         0         0         0         0
         0         0         0         0         0         0         0         0
         0         0         0         0         0         0         0         0
         0         0         0         0         0         0         0         0
         0         0         0         0         0         0         0         0
         0         0         0         0         0         0         0         0
         0         0         0         0         0         0         0         0
         0         0         0         0         0         0         0         0
         0         0         0         0         0         0         0         0
         0         0         0         0         0         0         0         0
         0         0         0         0         0         0         0         0
         0         0         0         0         0         0         0         0
         0         0         0         0         0         0         0         0
         0         0         0         0         0         0         0         0
         0         0         0         0         0         0         0         0
         0         0         0         0         0         0         0         0
         0         0         0         0         0         0         0         0
         0         0         0         0         0         0         0         0
         0         0         0         0         0         0         0         0
         0         0         0         0         0         0         0         0
         0         0         0         0         0         0         0         0
         0         0         0         0         0         0         0         0
         0         0         0         0         0         0         0         0
         0         0         0         0         0         0         0         0
         0         0         0         0         0         0         0         0
         0         0         0         0         0         0         0         0
         0         0         0         0         0         0         0         0
         0         0         0         0         0         0         0         0
         0         0         0         0         0         0         0         0
         0         0         0         0         0         0         0         0
         0         0         0         0         0         0         0         0
         0         0         0         0         0         0         0         0
         0         0         0         0         0         0         0         0
         0         0         0         0         0         0         0         0
         0         0         0         0         0         0         0         0
         0         0         0         0         0         0         0         0
         0         0         0         0         0         0         0         0
         0         0         0         0         0         0         0         0
         0         0         0         0         0         0         0         0
         0         0         0         0         0         0         0         0
         0         0         0         0         0         0         0         0
         0         0         0         0         0         0         0         0
         0         0         0         0         0         0         0         0
         0         0         0         0         0         0         0         0
         0         0         0         0         0         0         0         0
         0         0         0         0         0         0         0         0
         0         0         0         0         0         0         0         0
         0         0         0         0         0         0         0         0
         0         0         0         0         0         0         0         0
         0         0         0         0         0         0         0         0
         0         0         0         0         0         0         0         0
         0         0         0         0         0         0         0         0
         0         0         0         0         0         0         0         0
         0         0         0         0         0         0         0         0
         0         0         0         0         0         0         0         0
         0         0         0         0         0         0         0         0
         0         0         0         0         0         0         0         0
         0         0         0         0         0         0         0         0
         0         0         0         0         0         0         0         0
         0         0         0         0         0         0         0         0
         0         0         0         0         0         0         0         0
         0         0         0         0         0         0         0         0
         0         0         0         0         0         0         0         0
         0         0         0         0         0         0         0         0
         0         0         0         0         0         0         0         0
         0         0         0         0         0         0         0         0
         0         0         0         0         0         0         0         0
         0         0         0         0         0         0         0         0
         0         0         0         0         0         0         0         0
         0         0         0         0         0         0         0         0
         0         0         0         0         0         0         0         0
         0         0         0         0         0         0         0         0
         0         0         0         0         0         0         0         0
         0         0         0         0         0         0         0         0
         0         0         0         0         0         0         0         0
         0         0         0         0         0         0         0         0
         0         0         0         0         0         0         0         0
         0         0         0         0         0         0         0         0
         0         0         0         0         0         0         0         0
         0         0         0         0         0         0         0         0
         0         0         0         0         0         0         0         0
         0         0         0         0         0         0         0         0
         0         0         0         0         0         0         0         0
         0         0         0         0         0         0         0         0
         0         0         0         0         0         0         0         0
         0         0         0         0         0         0         0         0
         0         0         0         0         0         0         0         0
         0         0         0         0         0         0         0         0
         0         0         0         0         0         0         0         0
         0         0         0         0         0         0         0         0
         0         0         0         0         0         0         0         0
         0         0         0         0         0         0         0         0
         0         0         0         0         0         0         0         0
         0         0         0         0         0         0         0         0
         0         0         0         0         0         0         0         0
         0         0         0         0         0         0         0         0
         0         0         0         0         0         0         0         0
         0         0         0         0         0         0         0         0
         0         0         0         0         0         0         0         0
         0         0         0         0         0         0         0         0
         0         0         0         0         0         0         0         0
         0         0         0         0         0         0         0         0
         0         0         0         0         0         0         0         0
         0         0         0         0         0         0         0         0
         0         0         0         0         0         0         0         0
         0         0         0         0         0         0         0         0
         0         0         0         0         0         0         0         0
         0         0         0         0         0         0         0         0
         0         0         0         0         0         0         0         0
         0         0         0         0         0         0         0         0
         0         0         0         0         0         0         0         0
         0         0         0         0         0         0         0         0
         0         0         0         0         0         0         0         0
         0         0         0         0         0         0         0         0
         0         0         0         0         0         0         0         0
         0         0         0         0         0         0         0         0
         0         0         0         0         0         0         0         0
         0         0         0         0         0         0         0         0
         0         0         0         0         0         0         0         0
         0         0         0         0         0         0         0         0
         0         0         0         0         0         0         0         0
         0         0         0         0         0         0         0         0
         0         0         0         0         0         0         0         0
         0         0         0         0         0         0         0         0
         0         0         0         0         0         0         0         0
         0         0         0         0         0         0         0         0
         0         0         0         0         0         0         0         0
         0         0         0         0         0         0         0         0
         0         0         0         0         0         0         0         0
         0         0         0         0         0         0         0         0
         0         0         0         0         0         0         0         0
         0         0         0         0         0         0         0         0
         0         0         0         0         0         0         0         0
         0         0         0         0         0         0         0         0
         0         0         0         0         0         0         0         0
         0         0         0         0         0         0         0         0
         0         0         0         0         0         0         0         0
         0         0         0         0         0         0         0         0
         0         0         0         0         0         0         0         0
         0         0         0         0         0         0         0         0
         0         0         0         0         0         0         0         0
         0         0         0         0         0         0         0         0
         0         0         0         0         0         0         0         0
         0         0         0         0         0         0         0         0
         0         0         0         0         0         0         0         0
         0         0         0         0         0         0         0         0
         0         0         0         0         0         0         0         0
         0         0         0         0         0         0         0         0
         0         0         0         0         0         0         0         0
         0         0         0         0         0         0         0         0
         0         0         0         0         0         0         0         0
         0         0         0         0         0         0         0         0
         0         0         0         0         0         0         0         0
         0         0         0         0         0         0         0         0
         0         0         0         0         0         0         0         0
         0         0         0         0         0         0         0         0
         0         0         0         0         0         0         0         0
         0         0         0         0         0         0         0         0
         0         0         0         0         0         0         0         0
         0         0         0         0         0         0         0         0
         0         0         0         0         0         0         0         0
         0         0         0         0         0         0         0         0
         0         0         0         0         0         0         0         0
         0         0         0         0         0         0         0         0
         0         0         0         0         0         0         0         0
         0         0         0         0         0         0         0         0
         0         0         0         0         0         0         0         0
         0         0         0         0         0         0         0         0
         0         0         0         0         0         0         0         0
         0         0         0         0         0         0         0         0
         0         0         0         0         0         0         0         0
         0         0         0         0         0         0         0         0
         0         0         0         0         0         0         0         0
         0         0         0         0         0         0         0         0
         0         0         0         0         0         0         0         0
         0         0         0         0         0         0         0         0
         0         0         0         0         0         0         0         0
         0         0         0         0         0         0         0         0
         0         0         0         0         0         0         0         0
         0         0         0         0         0         0         0         0
         0         0         0         0         0         0         0         0
         0         0         0         0         0         0         0         0
         0         0         0         0         0         0         0         0
         0         0         0         0         0         0         0         0
         0         0         0         0         0         0         0         0
         0         0         0         0         0         0         0         0
         0         0         0         0         0         0         0         0
         0         0         0         0         0         0         0         0
         0         0         0         0         0         0         0         0
         0         0         0         0         0         0         0         0
         0         0         0         0         0         0         0         0
         0         0         0         0         0         0         0         0
         0         0         0         0         0         0         0         0
         0         0         0         0         0         0         0         0
         0         0         0         0         0         0         0         0
         0         0         0         0         0         0         0         0
         0         0         0         0         0         0         0         0
         0         0         0         0         0         0         0         0
         0         0         0         0         0         0         0         0
         0         0         0         0         0         0         0         0
         0         0         0         0         0         0         0         0
         0         0         0         0         0         0         0         0
         0         0         0         0         0         0         0         0
         0         0         0         0         0         0         0         0
         0         0         0         0         0         0         0         0
         0         0         0         0         0         0         0         0
         0         0         0         0         0         0         0         0
         0         0         0         0         0         0         0         0
         0         0         0         0         0         0         0         0
         0         0         0         0         0         0         0         0
         0         0         0         0         0         0         0         0
         0         0         0         0         0         0         0         0
         0         0         0         0         0         0         0         0
         0         0         0         0         0         0         0         0
         0         0         0         0         0         0         0         0
         0         0         0         0         0         0         0         0
         0         0         0         0         0         0         0         0
         0         0         0         0         0         0         0         0
         0         0         0         0         0         0         0         0
         0         0         0         0         0         0         0         0
         0         0         0         0         0         0         0         0
         0         0         0         0         0         0         0         0
         0         0         0         0         0         0         0         0
         0         0         0         0         0         0         0         0
         0         0         0         0         0         0         0         0
         0         0         0         0         0         0         0         0
         0         0         0         0         0         0         0         0
         0         0         0         0         0         0         0         0
         0         0         0         0         0         0         0         0
         0         0         0         0         0         0         0         0
         0         0         0         0         0         0         0         0
         0         0         0         0         0         0         0         0
         0         0         0         0         0         0         0         0
         0         0         0         0         0         0         0         0
         0         0         0         0         0         0         0         0
         0         0         0         0         0         0         0         0
         0         0         0         0         0         0         0         0
         0         0         0         0         0         0         0         0
         0         0         0         0         0         0         0         0
         0         0         0         0         0         0         0         0
         0         0         0         0         0         0         0         0
         0         0         0         0         0         0         0         0
         0         0         0         0         0         0         0         0
         0         0         0         0         0         0         0         0
         0         0         0         0         0         0         0         0
         0         0         0         0         0         0         0         0
         0         0         0         0         0         0         0         0
         0         0         0         0         0         0         0         0
         0         0         0         0         0         0         0         0
         0         0         0         0         0         0         0         0
         0         0         0         0         0         0         0         0
         0         0         0         0         0         0         0         0
         0         0         0         0         0         0         0         0
         0         0         0         0         0         0         0         0
         0         0         0         0         0         0         0         0
         0         0         0         0         0         0         0         0
         0         0         0         0         0         0         0         0
         0         0         0         0         0         0         0         0
         0         0         0         0         0         0         0         0
         0         0         0         0         0         0         0         0
         0         0         0         0         0         0         0         0
         0         0         0         0         0         0         0         0
         0         0         0         0         0         0         0         0
         0         0         0         0         0         0         0         0
         0         0         0         0         0         0         0         0
         0         0         0         0         0         0         0         0
         0         0         0         0         0         0         0         0
         0         0         0         0         0         0         0         0
         0         0         0         0         0         0         0         0
         0         0         0         0         0         0         0         0
         0         0         0         0         0         0         0         0
         0         0         0         0         0         0         0         0
         0         0         0         0         0         0         0         0
         0         0         0         0         0         0         0         0
         0         0         0         0         0         0         0         0
         0         0         0         0         0         0         0         0
         0         0         0         0         0         0         0         0
         0         0         0         0         0         0         0         0
         0         0         0         0         0         0         0         0
         0         0         0         0         0         0         0         0
         0         0         0         0         0         0         0         0
         0         0         0         0         0         0         0         0
         0         0         0         0         0         0         0         0
         0         0         0         0         0         0         0         0
         0         0         0         0         0         0         0         0
         0         0         0         0         0         0         0         0
         0         0         0         0         0         0         0         0
         0         0         0         0         0         0         0         0
         0         0         0         0         0         0         0         0
         0         0         0         0         0         0         0         0
         0         0         0         0         0         0         0         0
         0         0         0         0         0         0         0         0
         0         0         0         0         0         0         0         0
         0         0         0         0         0         0         0         0
         0         0         0         0         0         0         0         0
         0         0         0         0         0         0         0         0
         0         0         0         0         0         0         0         0
         0         0         0         0         0         0         0         0
         0         0         0         0         0         0         0         0
         0         0         0         0         0         0         0         0
         0         0         0         0         0         0         0         0
         0         0         0         0         0         0         0         0
         0         0         0         0         0         0         0         0
         0         0         0         0         0         0         0         0
         0         0         0         0         0         0         0         0
         0         0         0         0         0         0         0         0
         0         0         0         0         0         0         0         0
         0         0         0         0         0         0         0         0
         0         0         0         0         0         0         0         0
         0         0         0         0         0         0         0         0
         0         0         0         0         0         0         0         0
         0         0         0         0         0         0         0         0
         0         0         0         0         0         0         0         0
         0         0         0         0         0         0         0         0
         0         0         0         0         0         0         0         0
         0         0         0         0         0         0         0         0
         0         0         0         0         0         0         0         0
         0         0         0         0         0         0         0         0
         0         0         0         0         0         0         0         0
         0         0         0         0         0         0         0         0
         0         0         0         0         0         0         0         0
         0         0         0         0         0         0         0         0
         0         0         0         0         0         0         0         0
         0         0         0         0         0         0         0         0
         0         0         0         0         0         0         0         0
         0         0         0         0         0         0         0         0
         0         0         0         0         0         0         0         0
         0         0         0         0         0         0         0         0
         0         0         0         0         0         0         0         0
         0         0         0         0         0         0         0         0
         0         0         0         0         0         0         0         0
         0         0         0         0         0         0         0         0
         0         0         0         0         0         0         0         0
         0         0         0         0         0         0         0         0
         0         0         0         0         0         0         0         0
         0         0         0         0         0         0         0         0
         0         0         0         0         0         0         0         0
         0         0         0         0         0         0         0         0
         0         0         0         0         0         0         0         0
         0         0         0         0         0         0         0         0
         0         0         0         0         0         0         0         0
         0         0         0         0         0         0         0         0
         0         0         0         0         0         0         0         0
         0         0         0         0         0         0         0         0
         0         0         0         0         0         0         0         0
         0         0         0         0         0         0         0         0
         0         0         0         0         0         0         0         0
         0         0         0         0         0         0         0         0
         0         0         0         0         0         0         0         0
         0         0         0         0         0         0         0         0
         0         0         0         0         0         0         0         0
         0         0         0         0         0         0         0         0
         0         0         0         0         0         0         0         0
         0         0         0         0         0         0         0         0
         0         0         0         0         0         0         0         0
         0         0         0         0         0         0         0         0
         0         0         0         0         0         0         0         0
         0         0         0         0         0         0         0         0
         0         0         0         0         0         0         0         0
         0         0         0         0         0         0         0         0
         0         0         0         0         0         0         0         0
         0         0         0         0         0         0         0         0
         0         0         0         0         0         0         0         0
         0         0         0         0         0         0         0         0
         0         0         0         0         0         0         0         0
         0         0         0         0         0         0         0         0
         0         0         0         0         0         0         0         0
         0         0         0         0         0         0         0         0
         0         0         0         0         0         0         0         0
         0         0         0         0         0         0         0         0
         0         0         0         0         0         0         0         0
         0         0         0         0         0         0         0         0
         0         0         0         0         0         0         0         0
         0         0         0         0         0         0         0         0
         0         0         0         0         0         0         0         0
         0         0         0         0         0         0         0         0
         0         0         0         0         0         0         0         0
         0         0         0         0         0         0         0         0
         0         0         0         0         0         0         0         0
         0         0         0         0         0         0         0         0
         0         0         0         0         0         0         0         0
         0         0         0         0         0         0         0         0
         0         0         0         0         0         0         0         0
         0         0         0         0         0         0         0         0
         0         0         0         0         0         0         0         0
         0         0         0         0         0         0         0         0
         0         0         0         0         0         0         0         0
         0         0         0         0         0         0         0         0
         0         0         0         0         0         0         0         0
         0         0         0         0         0         0         0         0
         0         0         0         0         0         0         0         0
         0         0         0         0         0         0         0         0
         0         0         0         0         0         0         0         0
         0         0         0         0         0         0         0         0
         0         0         0         0         0         0         0         0
         0         0         0         0         0         0         0         0
         0         0         0         0         0         0         0         0
         0         0         0         0         0         0         0         0
         0         0         0         0         0         0         0         0
         0         0         0         0         0         0         0         0
         0         0         0         0         0         0         0         0
         0         0         0         0         0         0         0         0
         0         0         0         0         0         0         0         0
         0         0         0         0         0         0         0         0
         0         0         0         0         0         0         0         0
         0         0         0         0         0         0         0         0
         0         0         0         0         0         0         0         0
         0         0         0         0         0         0         0         0
         0         0         0         0         0         0         0         0
         0         0         0         0         0         0         0         0
         0         0         0         0         0         0         0         0
         0         0         0         0         0         0         0         0
         0         0         0         0         0         0         0         0
         0         0         0         0         0         0         0         0
         0         0         0         0         0         0         0         0
         0         0         0         0         0         0         0         0
         0         0         0         0         0         0         0         0
         0         0         0         0         0         0         0         0
         0         0         0         0         0         0         0         0
         0         0         0         0         0         0         0         0
         0         0         0         0         0         0         0         0
         0         0         0         0         0         0         0         0
         0         0         0         0         0         0         0         0
         0         0         0         0         0         0         0         0
         0         0         0         0         0         0         0         0
         0         0         0         0         0         0         0         0
         0         0         0         0         0         0         0         0
         0         0         0         0         0         0         0         0
         0         0         0         0         0         0         0         0
         0         0         0         0         0         0         0         0
         0         0         0         0         0         0         0         0
         0         0         0         0         0         0         0         0
         0         0         0         0         0         0         0         0
         0         0         0         0         0         0         0         0
         0         0         0         0         0         0         0         0
         0         0         0         0         0         0         0         0
         0         0         0         0         0         0         0         0
         0         0         0         0         0         0         0         0
         0         0         0         0         0         0         0         0
         0         0         0         0         0         0         0         0
         0         0         0         0         0         0         0         0
         0         0         0         0         0         0         0         0
         0         0         0         0         0         0         0         0
         0         0         0         0         0         0         0         0
         0         0         0         0         0         0         0         0
         0         0         0         0         0         0         0         0
         0         0         0         0         0         0         0         0
         0         0         0         0         0         0         0         0
         0         0         0         0         0         0         0         0
         0         0         0         0         0         0         0         0
         0         0         0         0         0         0         0         0
         0         0         0         0         0         0         0         0
         0         0         0         0         0         0         0         0
         0         0         0         0         0         0         0         0
         0         0         0         0         0         0         0         0
         0         0         0         0         0         0         0         0
         0         0         0         0         0         0         0         0
         0         0         0         0         0         0         0         0
         0         0         0         0         0         0         0         0
         0         0         0         0         0         0         0         0
         0         0         0         0         0         0         0         0
         0         0         0         0         0         0         0         0
         0         0         0         0         0         0         0         0
         0         0         0         0         0         0         0         0
         0         0         0         0         0         0         0         0
         0         0         0         0         0         0         0         0
         0         0         0         0         0         0         0         0
         0         0         0         0         0         0         0         0
         0         0         0         0         0         0         0         0
         0         0         0         0         0         0         0         0
         0         0         0         0         0         0         0         0
         0         0         0         0         0         0         0         0
         0         0         0         0         0         0         0         0
         0         0         0         0         0         0         0         0
         0         0         0         0         0         0         0         0
         0         0         0         0         0         0         0         0
         0         0         0         0         0         0         0         0
         0         0         0         0         0         0         0         0
         0         0         0         0         0         0         0         0
         0         0         0         0         0         0         0         0
         0         0         0         0         0         0         0         0
         0         0         0         0         0         0         0         0
         0         0         0         0         0         0         0         0
         0         0         0         0         0         0         0         0
         0         0         0         0         0         0         0         0
         0         0         0         0         0         0         0         0
         0         0         0         0         0         0         0         0
         0         0         0         0         0         0         0         0
         0         0         0         0         0         0         0         0
         0         0         0         0         0         0         0         0
         0         0         0         0         0         0         0         0
         0         0         0         0         0         0         0         0
         0         0         0         0         0         0         0         0
         0         0         0         0         0         0         0         0
         0         0         0         0         0         0         0         0
         0         0         0         0         0         0         0         0
         0         0         0         0         0         0         0         0
         0         0         0         0         0         0         0         0
         0         0         0         0         0         0         0         0
         0         0         0         0         0         0         0         0
         0         0         0         0         0         0         0         0
         0         0         0         0         0         0         0         0
         0         0         0         0         0         0         0         0
         0         0         0         0         0         0         0         0
         0         0         0         0         0         0         0         0
         0         0         0         0         0         0         0         0
         0         0         0         0         0         0         0         0
         0         0         0         0         0         0         0         0
         0         0         0         0         0         0         0         0
         0         0         0         0         0         0         0         0
         0         0         0         0         0         0         0         0
         0         0         0         0         0         0         0         0
         0         0         0         0         0         0         0         0
         0         0         0         0         0         0         0         0
         0         0         0         0         0         0         0         0
         0         0         0         0         0         0         0         0
         0         0         0         0         0         0         0         0
         0         0         0         0         0         0         0         0
         0         0         0         0         0         0         0         0
         0         0         0         0         0         0         0         0
         0         0         0         0         0         0         0         0
         0         0         0         0         0         0         0         0
         0         0         0         0         0         0         0         0
         0         0         0         0         0         0         0         0
         0         0         0         0         0         0         0         0
         0         0         0         0         0         0         0         0
         0         0         0         0         0         0         0         0
         0         0         0         0         0         0         0         0
         0         0         0         0         0         0         0         0
         0         0         0         0         0         0         0         0
         0         0         0         0         0         0         0         0
         0         0         0         0         0         0         0         0
         0         0         0         0         0         0         0         0
         0         0         0         0         0         0         0         0
         0         0         0         0         0         0         0         0
         0         0         0         0         0         0         0         0
         0         0         0         0         0         0         0         0
         0         0         0         0         0         0         0         0
         0         0         0         0         0         0         0         0
         0         0         0         0         0         0         0         0
         0         0         0         0         0         0         0         0
         0         0         0         0         0         0         0         0
         0         0         0         0         0         0         0         0
         0         0         0         0         0         0         0         0
         0         0         0         0         0         0         0         0
         0         0         0         0         0         0         0         0
         0         0         0         0         0         0         0         0
         0         0         0         0         0         0         0         0
         0         0         0         0         0         0         0         0
         0         0         0         0         0         0         0         0
         0         0         0         0         0         0         0         0
         0         0         0         0         0         0         0         0
         0         0         0         0         0         0         0         0
         0         0         0         0         0         0         0         0
         0         0         0         0         0         0         0         0
         0         0         0         0         0         0         0         0
         0         0         0         0         0         0         0         0
         0         0         0         0         0         0         0         0
         0         0         0         0         0         0         0         0
         0         0         0         0         0         0         0         0
         0         0         0         0         0         0         0         0
         0         0         0         0         0         0         0         0
         0         0         0         0         0         0         0         0
         0         0         0         0         0         0         0         0
         0         0         0         0         0         0         0         0
         0         0         0         0         0         0         0         0
         0         0         0         0         0         0         0         0
         0         0         0         0         0         0         0         0
         0         0         0         0         0         0         0         0
         0         0         0         0         0         0         0         0
         0         0         0         0         0         0         0         0
         0         0         0         0         0         0         0         0
         0         0         0         0         0         0         0         0
         0         0         0         0         0         0         0         0
         0         0         0         0         0         0         0         0
         0         0         0         0         0         0         0         0
         0         0         0         0         0         0         0         0
         0         0         0         0         0         0         0         0
         0         0         0         0         0         0         0         0
         0         0         0         0         0         0         0         0
         0         0         0         0         0         0         0         0
         0         0         0         0         0         0         0         0
         0         0         0         0         0         0         0         0
         0         0         0         0         0         0         0         0
         0         0         0         0         0         0         0         0
         0         0         0         0         0         0         0         0
         0         0         0         0         0         0         0         0
         0         0         0         0         0         0         0         0
         0         0         0         0         0         0         0         0
         0         0         0         0         0         0         0         0
         0         0         0         0         0         0         0         0
         0         0         0         0         0         0         0         0
         0         0         0         0         0         0         0         0
         0         0         0         0         0         0         0         0
         0         0         0         0         0         0         0         0
         0         0         0         0         0         0         0         0
         0         0         0         0         0         0         0         0
         0         0         0         0         0         0         0         0
         0         0         0         0         0         0         0         0
         0         0         0         0         0         0         0         0
         0         0         0         0         0         0         0         0
         0         0         0         0         0         0         0         0
         0         0         0         0         0         0         0         0
         0         0         0         0         0         0         0         0
         0         0         0         0         0         0         0         0
         0         0         0         0         0         0         0         0
         0         0         0         0         0         0         0         0
         0         0         0         0         0         0         0         0
         0         0         0         0         0         0         0         0
         0         0         0         0         0         0         0         0
         0         0         0         0         0         0         0         0
         0         0         0         0         0         0         0         0
         0         0         0         0         0         0         0         0
         0         0         0         0         0         0         0         0
         0         0         0         0         0         0         0         0
         0         0         0         0         0         0         0         0
         0         0         0         0         0         0         0         0
         0         0         0         0         0         0         0         0
         0         0         0         0         0         0         0         0
         0         0         0         0         0         0         0         0
         0         0         0         0         0         0         0         0
         0         0         0         0         0         0         0         0
         0         0         0         0         0         0         0         0
         0         0         0         0         0         0         0         0
         0         0         0         0         0         0         0         0
         0         0         0         0         0         0         0         0
         0         0         0         0         0         0         0         0
         0         0         0         0         0         0         0         0
         0         0         0         0         0         0         0         0
         0         0         0         0         0         0         0         0
         0         0         0         0         0         0         0         0
         0         0         0         0         0         0         0         0
         0         0         0         0         0         0         0         0
         0         0         0         0         0         0         0         0
         0         0         0         0         0         0         0         0
         0         0         0         0         0         0         0         0
         0         0         0         0         0         0         0         0
         0         0         0         0         0         0         0         0
         0         0         0         0         0         0         0         0
         0         0         0         0         0         0         0         0
         0         0         0         0         0         0         0         0
         0         0         0         0         0         0         0         0
         0         0         0         0         0         0         0         0
         0         0         0         0         0         0         0         0
         0         0         0         0         0         0         0         0
         0         0         0         0         0         0         0         0
         0         0         0         0         0         0         0         0
         0         0         0         0         0         0         0         0
         0         0         0         0         0         0         0         0
         0         0         0         0         0         0         0         0
         0         0         0         0         0         0         0         0
         0         0         0         0         0         0         0         0
         0         0         0         0         0         0         0         0
         0         0         0         0         0         0         0         0
         0         0         0         0         0         0         0         0
         0         0         0         0         0         0         0         0
         0         0         0         0         0         0         0         0
         0         0         0         0         0         0         0         0
         0         0         0         0         0         0         0         0
         0         0         0         0         0         0         0         0
         0         0         0         0         0         0         0         0
         0         0         0         0         0         0         0         0
         0         0         0         0         0         0         0         0
         0         0         0         0         0         0         0         0
         0         0         0         0         0         0         0         0
         0         0         0         0         0         0         0         0
         0         0         0         0         0         0         0         0
         0         0         0         0         0         0         0         0
         0         0         0         0         0         0         0         0
         0         0         0         0         0         0         0         0
         0         0         0         0         0         0         0         0
         0         0         0         0         0         0         0         0
         0         0         0         0         0         0         0         0
         0         0         0         0         0         0         0         0
         0         0         0         0         0         0         0         0
         0         0         0         0         0         0         0         0
         0         0         0         0         0         0         0         0
         0         0         0         0         0         0         0         0
         0         0         0         0         0         0         0         0
         0         0         0         0         0         0         0         0
         0         0         0         0         0         0         0         0
         0         0         0         0         0         0         0         0
         0         0         0         0         0         0         0         0
         0         0         0         0         0         0         0         0
         0         0         0         0         0         0         0         0
         0         0         0         0         0         0         0         0
         0         0         0         0         0         0         0         0
         0         0         0         0         0         0         0         0
         0         0         0         0         0         0         0         0
         0         0         0         0         0         0         0         0
         0         0         0         0         0         0         0         0
         0         0         0         0         0         0         0         0
         0         0         0         0         0         0         0         0
         0         0         0         0         0         0         0         0
         0         0         0         0         0         0         0         0
         0         0         0         0         0         0         0         0
         0         0         0         0         0         0         0         0
         0         0         0         0         0         0         0         0
         0         0         0         0         0         0         0         0
         0         0         0         0         0         0         0         0
         0         0         0         0         0         0         0         0
         0         0         0         0         0         0         0         0
         0         0         0         0         0         0         0         0
         0         0         0         0         0         0         0         0
         0         0         0         0         0         0         0         0
         0         0         0         0         0         0         0         0
         0         0         0         0         0         0         0         0
         0         0         0         0         0         0         0         0
         0         0         0         0         0         0         0         0
         0         0         0         0         0         0         0         0
         0         0         0         0         0         0         0         0
         0         0         0         0         0         0         0         0
         0         0         0         0         0         0         0         0
         0         0         0         0         0         0         0         0
         0         0         0         0         0         0         0         0
         0         0         0         0         0         0         0         0
         0         0         0         0         0         0         0         0
         0         0         0         0         0         0         0         0
         0         0         0         0         0         0         0         0
         0         0         0         0         0         0         0         0
         0         0         0         0         0         0         0         0
         0         0         0         0         0         0         0         0
         0         0         0         0         0         0         0         0
         0         0         0         0         0         0         0         0
         0         0         0         0         0         0         0         0
         0         0         0         0         0         0         0         0
         0         0         0         0         0         0         0         0
         0         0         0         0         0         0         0         0
         0         0         0         0         0         0         0         0
         0         0         0         0         0         0         0         0
         0         0         0         0         0         0         0         0
         0         0         0         0         0         0         0         0
         0         0         0         0         0         0         0         0
         0         0         0         0         0         0         0         0
         0         0         0         0         0         0         0         0
         0         0         0         0         0         0         0         0
         0         0         0         0         0         0         0         0
         0         0         0         0         0         0         0         0
         0         0         0         0         0         0         0         0
         0         0         0         0         0         0         0         0
         0         0         0         0         0         0         0         0
         0         0         0         0         0         0         0         0
         0         0         0         0         0         0         0         0
         0         0         0         0         0         0         0         0
         0         0         0         0         0         0         0         0
         0         0         0         0         0         0         0         0
         0         0         0         0         0         0         0         0
         0         0         0         0         0         0         0         0
         0         0         0         0         0         0         0         0
         0         0         0         0         0         0         0         0
         0         0         0         0         0         0         0         0
         0         0         0         0         0         0         0         0
         0         0         0         0         0         0         0         0
         0         0         0         0         0         0         0         0
         0         0         0         0         0         0         0         0
         0         0         0         0         0         0         0         0
         0         0         0         0         0         0         0         0
         0         0         0         0         0         0         0         0
         0         0         0         0         0         0         0         0
         0         0         0         0         0         0         0         0
         0         0         0         0         0         0         0         0
         0         0         0         0         0         0         0         0
         0         0         0         0         0         0         0         0
         0         0         0         0         0         0         0         0
         0         0         0         0         0         0         0         0
         0         0         0         0         0         0         0         0
         0         0         0         0         0         0         0         0
         0         0         0         0         0         0         0         0
         0         0         0         0         0         0         0         0
         0         0         0         0         0         0         0         0
         0         0         0         0         0         0         0         0
         0         0         0         0         0         0         0         0
         0         0         0         0         0         0         0         0
         0         0         0         0         0         0         0         0
         0         0         0         0         0         0         0         0
         0         0         0         0         0         0         0         0
         0         0         0         0         0         0         0         0
         0         0         0         0         0         0         0         0
         0         0         0         0         0         0         0         0
         0         0         0         0         0         0         0         0
         0         0         0         0         0         0         0         0
         0         0         0         0         0         0         0         0
         0         0         0         0         0         0         0         0
         0         0         0         0         0         0         0         0
         0         0         0         0         0         0         0         0
         0         0         0         0         0         0         0         0
         0         0         0         0         0         0         0         0
         0         0         0         0         0         0         0         0
         0         0         0         0         0         0         0         0
         0         0         0         0         0         0         0         0
         0         0         0         0         0         0         0         0
         0         0         0         0         0         0         0         0
         0         0         0         0         0         0         0         0
         0         0         0         0         0         0         0         0
         0         0         0         0         0         0         0         0
         0         0         0         0         0         0         0         0
         0         0         0         0         0         0         0         0
         0         0         0         0         0         0         0         0
         0         0         0         0         0         0         0         0
         0         0         0         0         0         0         0         0
         0         0         0         0         0         0         0         0
         0         0         0         0         0         0         0         0
         0         0         0         0         0         0         0         0
         0         0         0         0         0         0         0         0
         0         0         0         0         0         0         0         0
         0         0         0         0         0         0         0         0
         0         0         0         0         0         0         0         0
         0         0         0         0         0         0         0         0
         0         0         0         0         0         0         0         0
         0         0         0         0         0         0         0         0
         0         0         0         0         0         0         0         0
         0         0         0         0         0         0         0         0
         0         0         0         0         0         0         0         0
         0         0         0         0         0         0         0         0
         0         0         0         0         0         0         0         0
         0         0         0         0         0         0         0         0
         0         0         0         0         0         0         0         0
         0         0         0         0         0         0         0         0
         0         0         0         0         0         0         0         0
         0         0         0         0         0         0         0         0
         0         0         0         0         0         0         0         0
         0         0         0         0         0         0         0         0
         0         0         0         0         0         0         0         0
         0         0         0         0         0         0         0         0
         0         0         0         0         0         0         0         0
         0         0         0         0         0         0         0         0
         0         0         0         0         0         0         0         0
         0         0         0         0         0         0         0         0
         0         0         0         0         0         0         0         0
         0         0         0         0         0         0         0         0
         0         0         0         0         0         0         0         0
         0         0         0         0         0         0         0         0
         0         0         0         0         0         0         0         0
         0         0         0         0         0         0         0         0
         0         0         0         0         0         0         0         0
         0         0         0         0         0         0         0         0
         0         0         0         0         0         0         0         0
         0         0         0         0         0         0         0         0
         0         0         0         0         0         0         0         0
         0         0         0         0         0         0         0         0
         0         0         0         0         0         0         0         0
         0         0         0         0         0         0         0         0
         0         0         0         0         0         0         0         0
         0         0         0         0         0         0         0         0
         0         0         0         0         0         0         0         0
         0         0         0         0         0         0         0         0
         0         0         0         0         0         0         0         0
         0         0         0         0         0         0         0         0
         0         0         0         0         0         0         0         0
         0         0         0         0         0         0         0         0
         0         0         0         0         0         0         0         0
         0         0         0         0         0         0         0         0
         0         0         0         0         0         0         0         0
         0         0         0         0         0         0         0         0
         0         0         0         0         0         0         0         0
         0         0         0         0         0         0         0         0
         0         0         0         0         0         0         0         0
         0         0         0         0         0         0         0         0
         0         0         0         0         0         0         0         0
         0         0         0         0         0         0         0         0
         0         0         0         0         0         0         0         0
         0         0         0         0         0         0         0         0
         0         0         0         0         0         0         0         0
         0         0         0         0         0         0         0         0
         0         0         0         0         0         0         0         0
         0         0         0         0         0         0         0         0
         0         0         0         0         0         0         0         0
         0         0         0         0         0         0         0         0
         0         0         0         0         0         0         0         0
         0         0         0         0         0         0         0         0
         0         0         0         0         0         0         0         0
         0         0         0         0         0         0         0         0
         0         0         0         0         0         0         0         0
         0         0         0         0         0         0         0         0
         0         0         0         0         0         0         0         0
         0         0         0         0         0         0         0         0
         0         0         0         0         0         0         0         0
         0         0         0         0         0         0         0         0
         0         0         0         0         0         0         0         0
         0         0         0         0         0         0         0         0
         0         0         0         0         0         0         0         0
         0         0         0         0         0         0         0         0
         0         0         0         0         0         0         0         0
         0         0         0         0         0         0         0         0
         0         0         0         0         0         0         0         0
         0         0         0         0         0         0         0         0
         0         0         0         0         0         0         0         0
         0         0         0         0         0         0         0         0
         0         0         0         0         0         0         0         0
         0         0         0         0         0         0         0         0
         0         0         0         0         0         0         0         0
         0         0         0         0         0         0         0         0
         0         0         0         0         0         0         0         0
         0         0         0         0         0         0         0         0
         0         0         0         0         0         0         0         0
         0         0         0         0         0         0         0         0
         0         0         0         0         0         0         0         0
         0         0         0         0         0         0         0         0
         0         0         0         0         0         0         0         0
         0         0         0         0         0         0         0         0
         0         0         0         0         0         0         0         0
         0         0         0         0         0         0         0         0
         0         0         0         0         0         0         0         0
         0         0         0         0         0         0         0         0
         0         0         0         0         0         0         0         0
         0         0         0         0         0         0         0         0
         0         0         0         0         0         0         0         0
         0         0         0         0         0         0         0         0
         0         0         0         0         0         0         0         0
         0         0         0         0         0         0         0         0
         0         0         0         0         0         0         0         0
         0         0         0         0         0         0         0         0
         0         0         0         0         0         0         0         0
         0         0         0         0         0         0         0         0
         0         0         0         0         0         0         0         0
         0         0         0         0         0         0         0         0
         0         0         0         0         0         0         0         0
         0         0         0         0         0         0         0         0
         0         0         0         0         0         0         0         0
         0         0         0         0         0         0         0         0
         0         0         0         0         0         0         0         0
         0         0         0         0         0         0         0         0
         0         0         0         0         0         0         0         0
         0         0         0         0         0         0         0         0
         0         0         0         0         0         0         0         0
         0         0         0         0         0         0         0         0
         0         0         0         0         0         0         0         0
         0         0         0         0         0         0         0         0
         0         0         0         0         0         0         0         0
         0         0         0         0         0         0         0         0
         0         0         0         0         0         0         0         0
         0         0         0         0         0         0         0         0
         0         0         0         0         0         0         0         0
         0         0         0         0         0         0         0         0
         0         0         0         0         0         0         0         0
         0         0         0         0         0         0         0         0
         0         0         0         0         0         0         0         0
         0         0         0         0         0         0         0         0
         0         0         0         0         0         0         0         0
         0         0         0         0         0         0         0         0
         0         0         0         0         0         0         0         0
         0         0         0         0         0         0         0         0
         0         0         0         0         0         0         0         0
         0         0         0         0         0         0         0         0
         0         0         0         0         0         0         0         0
         0         0         0         0         0         0         0         0
         0         0         0         0         0         0         0         0
         0         0         0         0         0         0         0         0
         0         0         0         0         0         0         0         0
         0         0         0         0         0         0         0         0
         0         0         0         0         0         0         0         0
         0         0         0         0         0         0         0         0
         0         0         0         0         0         0         0         0
         0         0         0         0         0         0         0         0
         0         0         0         0         0         0         0         0
         0         0         0         0         0         0         0         0
         0         0         0         0         0         0         0         0
         0         0         0         0         0         0         0         0
         0         0         0         0         0         0         0         0
         0         0         0         0         0         0         0         0
         0         0         0         0         0         0         0         0
         0         0         0         0         0         0         0         0
         0         0         0         0         0         0         0         0
         0         0         0         0         0         0         0         0
         0         0         0         0         0         0         0         0
         0         0         0         0         0         0         0         0
         0         0         0         0         0         0         0         0
         0         0         0         0         0         0         0         0
         0         0         0         0         0         0         0         0
         0         0         0         0         0         0         0         0
         0         0         0         0         0         0         0         0
         0         0         0         0         0         0         0         0
         0         0         0         0         0         0         0         0
         0         0         0         0         0         0         0         0
         0         0         0         0         0         0         0         0
         0         0         0         0         0         0         0         0
         0         0         0         0         0         0         0         0
         0         0         0         0         0         0         0         0
         0         0         0         0         0         0         0         0
         0         0         0         0         0         0         0         0
         0         0         0         0         0         0         0         0
         0         0         0         0         0         0         0         0
         0         0         0         0         0         0         0         0
         0         0         0         0         0         0         0         0
         0         0         0         0         0         0         0         0
         0         0         0         0         0         0         0         0
         0         0         0         0         0         0         0         0
         0         0         0         0         0         0         0         0
         0         0         0         0         0         0         0         0
         0         0         0         0         0         0         0         0
         0         0         0         0         0         0         0         0
         0         0         0         0         0         0         0         0
         0         0         0         0         0         0         0         0
         0         0         0         0         0         0         0         0
         0         0         0         0         0         0         0         0
         0         0         0         0         0         0         0         0
         0         0         0         0         0         0         0         0
         0         0         0         0         0         0         0         0
         0         0         0         0         0         0         0         0
         0         0         0         0         0         0         0         0
         0         0         0         0         0         0         0         0
         0         0         0         0         0         0         0         0
         0         0         0         0         0         0         0         0
         0         0         0         0         0         0         0         0
         0         0         0         0         0         0         0         0
         0         0         0         0         0         0         0         0
         0         0         0         0         0         0         0         0
         0         0         0         0         0         0         0         0
         0         0         0         0         0         0         0         0
         0         0         0         0         0         0         0         0
         0         0         0         0         0         0         0         0
         0         0         0         0         0         0         0         0
         0         0         0         0         0         0         0         0
         0         0         0         0         0         0         0         0
         0         0         0         0         0         0         0         0
         0         0         0         0         0         0         0         0
         0         0         0         0         0         0         0         0
         0         0         0         0         0         0         0         0
         0         0         0         0         0         0         0         0
         0         0         0         0         0         0         0         0
         0         0         0         0         0         0         0         0
         0         0         0         0         0         0         0         0
         0         0         0         0         0         0         0         0
         0         0         0         0         0         0         0         0
         0         0         0         0         0         0         0         0
         0         0         0         0         0         0         0         0
         0         0         0         0         0         0         0         0
         0         0         0         0         0         0         0         0
         0         0         0         0         0         0         0         0
         0         0         0         0         0         0         0         0
         0         0         0         0         0         0         0         0
         0         0         0         0         0         0         0         0
         0         0         0         0         0         0         0         0
         0         0         0         0         0         0         0         0
         0         0         0         0         0         0         0         0
         0         0         0         0         0         0         0         0
         0         0         0         0         0         0         0         0
         0         0         0         0         0         0         0         0
         0         0         0         0         0         0         0         0
         0         0         0         0         0         0         0         0
         0         0         0         0         0         0         0         0
         0         0         0         0         0         0         0         0
         0         0         0         0         0         0         0         0
         0         0         0         0         0         0         0         0
         0         0         0         0         0         0         0         0
         0         0         0         0         0         0         0         0
         0         0         0         0         0         0         0         0
         0         0         0         0         0         0         0         0
         0         0         0         0         0         0         0         0
         0         0         0         0         0         0         0         0
         0         0         0         0         0         0         0         0
         0         0         0         0         0         0         0         0
         0         0         0         0         0         0         0         0
         0         0         0         0         0         0         0         0
         0         0         0         0         0         0         0         0
         0         0         0         0         0         0         0         0
         0         0         0         0         0         0         0         0
         0         0         0         0         0         0         0         0
         0         0         0         0         0         0         0         0
         0         0         0         0         0         0         0         0
         0         0         0         0         0         0         0         0
         0         0         0         0         0         0         0         0
         0         0         0         0         0         0         0         0
         0         0         0         0         0         0         0         0
         0         0         0         0         0         0         0         0
         0         0         0         0         0         0         0         0
         0         0         0         0         0         0         0         0
         0         0         0         0         0         0         0         0
         0         0         0         0         0         0         0         0
         0         0         0         0         0         0         0         0
         0         0         0         0         0         0         0         0
         0         0         0         0         0         0         0         0
         0         0         0         0         0         0         0         0
         0         0         0         0         0         0         0         0
         0         0         0         0         0         0         0         0
         0         0         0         0         0         0         0         0
         0         0         0         0         0         0         0         0
         0         0         0         0         0         0         0         0
         0         0         0         0         0         0         0         0
         0         0         0         0         0         0         0         0
         0         0         0         0         0         0         0         0
         0         0         0         0         0         0         0         0
         0         0         0         0         0         0         0         0
         0         0         0         0         0         0         0         0
         0         0         0         0         0         0         0         0
         0         0         0         0         0         0         0         0
         0         0         0         0         0         0         0         0
         0         0         0         0         0         0         0         0
         0         0         0         0         0         0         0         0
         0         0         0         0         0         0         0         0
         0         0         0         0         0         0         0         0
         0         0         0         0         0         0         0         0
         0         0         0         0         0         0         0         0
         0         0         0         0         0         0         0         0
         0         0         0         0         0         0         0         0
         0         0         0         0         0         0         0         0
         0         0         0         0         0         0         0         0
         0         0         0         0         0         0         0         0
         0         0         0         0         0         0         0         0
         0         0         0         0         0         0         0         0
         0         0         0         0         0         0         0         0
         0         0         0         0         0         0         0         0
         0         0         0         0         0         0         0         0
         0         0         0         0         0         0         0         0
         0         0         0         0         0         0         0         0
         0         0         0         0         0         0         0         0
         0         0         0         0         0         0         0         0
         0         0         0         0         0         0         0         0
         0         0         0         0         0         0         0         0
         0         0         0         0         0         0         0         0
         0         0         0         0         0         0         0         0
         0         0         0         0         0         0         0         0
         0         0         0         0         0         0         0         0
         0         0         0         0         0         0         0         0
         0         0         0         0         0         0         0         0
         0         0         0         0         0         0         0         0
         0         0         0         0         0         0         0         0
         0         0         0         0         0         0         0         0
         0         0         0         0         0         0         0         0
         0         0         0         0         0         0         0         0
         0         0         0         0         0         0         0         0
         0         0         0         0         0         0         0         0
         0         0         0         0         0         0         0         0
         0         0         0         0         0         0         0         0
         0         0         0         0         0         0         0         0
         0         0         0         0         0         0         0         0
         0         0         0         0         0         0         0         0
         0         0         0         0         0         0         0         0
         0         0         0         0         0         0         0         0
         0         0         0         0         0         0         0         0
         0         0         0         0         0         0         0         0
         0         0         0         0         0         0         0         0
         0         0         0         0         0         0         0         0
         0         0         0         0         0         0         0         0
         0         0         0         0         0         0         0         0
         0         0         0         0         0         0         0         0
         0         0         0         0         0         0         0         0
         0         0         0         0         0         0         0         0
         0         0         0         0         0         0         0         0
         0         0         0         0         0         0         0         0
         0         0         0         0         0         0         0         0
         0         0         0         0         0         0         0         0
         0         0         0         0         0         0         0         0
         0         0         0         0         0         0         0         0
         0         0         0         0         0         0         0         0
         0         0         0         0         0         0         0         0
         0         0         0         0         0         0         0         0
         0         0         0         0         0         0         0         0
         0         0         0         0         0         0         0         0
         0         0         0         0         0         0         0         0
         0         0         0         0         0         0         0         0
         0         0         0         0         0         0         0         0
         0         0         0         0         0         0         0         0
         0         0         0         0         0         0         0         0
         0         0         0         0         0         0         0         0
         0         0         0         0         0         0         0         0
         0         0         0         0         0         0         0         0
         0         0         0         0         0         0         0         0
         0         0         0         0         0         0         0         0
         0         0         0         0         0         0         0         0
         0         0         0         0         0         0         0         0
         0         0         0         0         0         0         0         0
         0         0         0         0         0         0         0         0
         0         0         0         0         0         0         0         0
         0         0         0         0         0         0         0         0
         0         0         0         0         0         0         0         0
         0         0         0         0         0         0         0         0
         0         0         0         0         0         0         0         0
         0         0         0         0         0         0         0         0
         0         0         0         0         0         0         0         0
         0         0         0         0         0         0         0         0
         0         0         0         0         0         0         0         0
         0         0         0         0         0         0         0         0
         0         0         0         0         0         0         0         0
         0         0         0         0         0         0         0         0
         0         0         0         0         0         0         0         0
         0         0         0         0         0         0         0         0
         0         0         0         0         0         0         0         0
         0         0         0         0         0         0         0         0
         0         0         0         0         0         0         0         0
         0         0         0         0         0         0         0         0
         0         0         0         0         0         0         0         0
         0         0         0         0         0         0         0         0
         0         0         0         0         0         0         0         0
         0         0         0         0         0         0         0         0
         0         0         0         0         0         0         0         0
         0         0         0         0         0         0         0         0
         0         0         0         0         0         0         0         0
         0         0         0         0         0         0         0         0
         0         0         0         0         0         0         0         0
         0         0         0         0         0         0         0         0
         0         0         0         0         0         0         0         0
         0         0         0         0         0         0         0         0
         0         0         0         0         0         0         0         0
         0         0         0         0         0         0         0         0
         0         0         0         0         0         0         0         0
         0         0         0         0         0         0         0         0
         0         0         0         0         0         0         0         0
         0         0         0         0         0         0         0         0
         0         0         0         0         0         0         0         0
         0         0         0         0         0         0         0         0
         0         0         0         0         0         0         0         0
         0         0         0         0         0         0         0         0
         0         0         0         0         0         0         0         0
         0         0         0         0         0         0         0         0
         0         0         0         0         0         0         0         0
         0         0         0         0         0         0         0         0
         0         0         0         0         0         0         0         0
         0         0         0         0         0         0         0         0
         0         0         0         0         0         0         0         0
         0         0         0         0         0         0         0         0
         0         0         0         0         0         0         0         0
         0         0         0         0         0         0         0         0
         0         0         0         0         0         0         0         0
         0         0         0         0         0         0         0         0
         0         0         0         0         0         0         0         0
         0         0         0         0         0         0         0         0
         0         0         0         0         0         0         0         0
         0         0         0         0         0         0         0         0
         0         0         0         0         0         0         0         0
         0         0         0         0         0         0         0         0
         0         0         0         0         0         0         0         0
         0         0         0         0         0         0         0         0
         0         0         0         0         0         0         0         0
         0         0         0         0         0         0         0         0
         0         0         0         0         0         0         0         0
         0         0         0         0         0         0         0         0
         0         0         0         0         0         0         0         0
         0         0         0         0         0         0         0         0
         0         0         0         0         0         0         0         0
         0         0         0         0         0         0         0         0
         0         0         0         0         0         0         0         0
         0         0         0         0         0         0         0         0
         0         0         0         0         0         0         0         0
         0         0         0         0         0         0         0         0
         0         0         0         0         0         0         0         0
         0         0         0         0         0         0         0         0
         0         0         0         0         0         0         0         0
         0         0         0         0         0         0         0         0
         0         0         0         0         0         0         0         0
         0         0         0         0         0         0         0         0
         0         0         0         0         0         0         0         0
         0         0         0         0         0         0         0         0
         0         0         0         0         0         0         0         0
         0         0         0         0         0         0         0         0
         0         0         0         0         0         0         0         0
         0         0         0         0         0         0         0         0
         0         0         0         0         0         0         0         0
         0         0         0         0         0         0         0         0
         0         0         0         0         0         0         0         0
         0         0         0         0         0         0         0         0
         0         0         0         0         0         0         0         0
         0         0         0         0         0         0         0         0
         0         0         0         0         0         0         0         0
         0         0         0         0         0         0         0         0
         0         0         0         0         0         0         0         0
         0         0         0         0         0         0         0         0
         0         0         0         0         0         0         0         0
         0         0         0         0         0         0         0         0
         0         0         0         0         0         0         0         0
         0         0         0         0         0         0         0         0
         0         0         0         0         0         0         0         0
         0         0         0         0         0         0         0         0
         0         0         0         0         0         0         0         0
         0         0         0         0         0         0         0         0
         0         0         0         0         0         0         0         0
         0         0         0         0         0         0         0         0
         0         0         0         0         0         0         0         0
         0         0         0         0         0         0         0         0
         0         0         0         0         0         0         0         0
         0         0         0         0         0         0         0         0
         0         0         0         0         0         0         0         0
         0         0         0         0         0         0         0         0
         0         0         0         0         0         0         0         0
         0         0         0         0         0         0         0         0
         0         0         0         0         0         0         0         0
         0         0         0         0         0         0         0         0
         0         0         0         0         0         0         0         0
         0         0         0         0         0         0         0         0
         0         0         0         0         0         0         0         0
         0         0         0         0         0         0         0         0
         0         0         0         0         0         0         0         0
         0         0         0         0         0         0         0         0
         0         0         0         0         0         0         0         0
         0         0         0         0         0         0         0         0
         0         0         0         0         0         0         0         0
         0         0         0         0         0         0         0         0
         0         0         0         0         0         0         0         0
         0         0         0         0         0         0         0         0
         0         0         0         0         0         0         0         0
         0         0         0         0         0         0         0         0
         0         0         0         0         0         0         0         0
         0         0         0         0         0         0         0         0
         0         0         0         0         0         0         0         0
         0         0         0         0         0         0         0         0
         0         0         0         0         0         0         0         0
         0         0         0         0         0         0         0         0
         0         0         0         0         0         0         0         0
         0         0         0         0         0         0         0         0
         0         0         0         0         0         0         0         0
         0         0         0         0         0         0         0         0
         0         0         0         0         0         0         0         0
         0         0         0         0         0         0         0         0
         0         0         0         0         0         0         0         0
         0         0         0         0         0         0         0         0
         0         0         0         0         0         0         0         0
         0         0         0         0         0         0         0         0
         0         0         0         0         0         0         0         0
         0         0         0         0         0         0         0         0
         0         0         0         0         0         0         0         0
         0         0         0         0         0         0         0         0
         0         0         0         0         0         0         0         0
         0         0         0         0         0         0         0         0
         0         0         0         0         0         0         0         0
         0         0         0         0         0         0         0         0
         0         0         0         0         0         0         0         0
         0         0         0         0         0         0         0         0
         0         0         0         0         0         0         0         0
         0         0         0         0         0         0         0         0
         0         0         0         0         0         0         0         0
         0         0         0         0         0         0         0         0
         0         0         0         0         0         0         0         0
         0         0         0         0         0         0         0         0
         0         0         0         0         0         0         0         0
         0         0         0         0         0         0         0         0
         0         0         0         0         0         0         0         0
         0         0         0         0         0         0         0         0
         0         0         0         0         0         0         0         0
         0         0         0         0         0         0         0         0
         0         0         0         0         0         0         0         0
         0         0         0         0         0         0         0         0
         0         0         0         0         0         0         0         0
         0         0         0         0         0         0         0         0
         0         0         0         0         0         0         0         0
         0         0         0         0         0         0         0         0
         0         0         0         0         0         0         0         0
         0         0         0         0         0         0         0         0
         0         0         0         0         0         0         0         0
         0         0         0         0         0         0         0         0
         0         0         0         0         0         0         0         0
         0         0         0         0         0         0         0         0
         0         0         0         0         0         0         0         0
         0         0         0         0         0         0         0         0
         0         0         0         0         0         0         0         0
         0         0         0         0         0         0         0         0
         0         0         0         0         0         0         0         0
         0         0         0         0         0         0         0         0
         0         0         0         0         0         0         0         0
         0         0         0         0         0         0         0         0
         0         0         0         0         0         0         0         0
         0         0         0         0         0         0         0         0
         0         0         0         0         0         0         0         0
         0         0         0         0         0         0         0         0
         0         0         0         0         0         0         0         0
         0         0         0         0         0         0         0         0
         0         0         0         0         0         0         0         0
         0         0         0         0         0         0         0         0
         0         0         0         0         0         0         0         0
         0         0         0         0         0         0         0         0
         0         0         0         0         0         0         0         0
         0         0         0         0         0         0         0         0
         0         0         0         0         0         0         0         0
         0         0         0         0         0         0         0         0
         0         0         0         0         0         0         0         0
         0         0         0         0         0         0         0         0
         0         0         0         0         0         0         0         0
         0         0         0         0         0         0         0         0
         0         0         0         0         0         0         0         0
         0         0         0         0         0         0         0         0
         0         0         0         0         0         0         0         0
         0         0         0         0         0         0         0         0
         0         0         0         0         0         0         0         0
         0         0         0         0         0         0         0         0
         0         0         0         0         0         0         0         0
         0         0         0         0         0         0         0         0
         0         0         0         0         0         0         0         0
         0         0         0         0         0         0         0         0
         0         0         0         0         0         0         0         0
         0         0         0         0         0         0         0         0
         0         0         0         0         0         0         0         0
         0         0         0         0         0         0         0         0
         0         0         0         0         0         0         0         0
         0         0         0

      6585         0 !NGRP NST2
         0         1         0         4         1         0         7         1         0
        10         1         0        13         1         0        15         1         0
        17         1         0        20         1         0        23         1         0
        25         0         0        26         1         0        30         1         0
        33         1         0        36         1         0        38         0         0
        39         1         0        43         1         0        46         1         0
        49         1         0        51         1         0        55         1         0
        58         1         0        61         1         0        64         1         0
        66         1         0        70         1         0        74         1         0
        78         1         0        81         1         0        84         1         0
        87         1         0        89         1         0        91         1         0
        94         1         0        97         1         0        99         0         0
       100         1         0       104         1         0       107         1         0
       110         1         0       112         0         0       113         1         0
       117         1         0       120         1         0       123         1         0
       125         1         0       129         1         0       132         1         0
       135         1         0       138         1         0       140         1         0
       144         1         0       148         2         0       164         2         0
       175         1         0       183         1         0       192         1         0
       195         1         0       198         1         0       200         1         0
       202         1         0       205         1         0       207         1         0
       209         1         0       212         1         0       214         1         0
       216         1         0       219         1         0       221         1         0
       223         1         0       226         1         0       229         2         0
       232         1         0       235         2         0       239         1         0
       242         1         0       245         1         0       248         1         0
       251         1         0       254         1         0       257         1         0
       260         1         0       263         1         0       266         1         0
       269         1         0       272         1         0       275         1         0
       278         1         0       281         1         0       284         1         0
       288         1         0       292         1         0       295         1         0
       298         1         0       301         1         0       303         1         0
       305         1         0       308         1         0       311         1         0
       313         0         0       314         1         0       318         1         0
       321         1         0       324         1         0       326         0         0
       327         1         0       331         1         0       334         1         0
       337         1         0       339         1         0       343         1         0
       346         1         0       349         1         0       352         1         0
       354         1         0       358         1         0       362         2         0
       378         2         0       389         1         0       397         1         0
       406         1         0       409         1         0       412         1         0
       415         1         0       418         1         0       421         1         0
       424         1         0       426         1         0       428         1         0
       431         1         0       433         1         0       435         1         0
       438         1         0       441         1         0       444         1         0
       447         1         0       451         1         0       454         1         0
       457         1         0       460         1         0       463         1         0
       466         1         0       469         1         0       472         1         0
       475         1         0       478         1         0       481         1         0
       484         1         0       487         1         0       490         1         0
       493         1         0       496         1         0       500         1         0
       504         1         0       507         1         0       510         1         0
       513         1         0       515         1         0       517         1         0
       520         1         0       523         1         0       525         0         0
       526         1         0       530         1         0       533         1         0
       536         1         0       538         0         0       539         1         0
       543         1         0       546         1         0       549         1         0
       551         1         0       555         1         0       558         1         0
       561         1         0       564         1         0       566         1         0
       570         1         0       574         2         0       581         2         0
       592         1         0       600         1         0       609         1         0
       612         1         0       615         1         0       617         1         0
       619         1         0       622         1         0       624         1         0
       626         1         0       629         1         0       631         1         0
       633         1         0       636         1         0       638         1         0
       640         1         0       643         1         0       646         1         0
       649         1         0       652         1         0       656         1         0
       659         1         0       662         1         0       665         1         0
       668         1         0       671         1         0       674         1         0
       677         1         0       680         1         0       683         1         0
       686         1         0       689         1         0       692         1         0
       695         1         0       698         1         0       701         1         0
       705         2         0       712         2         0       723         1         0
       731         1         0       740         1         0       743         1         0
       746         1         0       749         1         0       752         1         0
       755         1         0       758         1         0       760         1         0
       762         1         0       765         1         0       768         1         0
       771         1         0       774         1         0       777         1         0
       780         1         0       783         1         0       787         1         0
       790         1         0       793         1         0       796         1         0
       799         1         0       802         1         0       805         1         0
       808         1         0       811         1         0       814         1         0
       817         1         0       820         1         0       823         1         0
       826         1         0       829         1         0       832         1         0
       836         1         0       840         1         0       843         1         0
       846         1         0       849         1         0       851         1         0
       853         1         0       856         1         0       859         1         0
       861         0         0       862         1         0       866         1         0
       869         1         0       872         1         0       874         0         0
       875         1         0       879         1         0       882         1         0
       885         1         0       887         1         0       891         1         0
       894         1         0       897         1         0       900         1         0
       902         1         0       906         1         0       910         1         0
       914         1         0       917         1         0       920         1         0
       923         1         0       925         1         0       927         1         0
       930         1         0       933         1         0       935         0         0
       936         1         0       940         1         0       943         1         0
       946         1         0       948         0         0       949         1         0
       953         1         0       956         1         0       959         1         0
       961         1         0       965         1         0       968         1         0
       971         1         0       974         1         0       976         1         0
       980         1         0       984         2         0       991         2         0
      1002         1         0      1010         1         0      1019         1         0
      1022         1         0      1025         1         0      1027         1         0
      1029         1         0      1032         1         0      1034         1         0
      1036         1         0      1039         1         0      1041         1         0
      1043         1         0      1046         1         0      1048         1         0
      1050         1         0      1053         1         0      1056         1         0
      1059         1         0      1062         1         0      1066         1         0
      1069         1         0      1072         1         0      1075         1         0
      1078         1         0      1081         1         0      1084         1         0
      1087         1         0      1090         1         0      1093         1         0
      1096         1         0      1099         1         0      1102         1         0
      1105         1         0      1108         1         0      1111         1         0
      1115         1         0      1119         1         0      1122         1         0
      1125         1         0      1128         1         0      1130         1         0
      1132         1         0      1135         1         0      1138         1         0
      1140         0         0      1141         1         0      1145         1         0
      1148         1         0      1151         1         0      1153         0         0
      1154         1         0      1158         1         0      1161         1         0
      1164         1         0      1166         1         0      1170         1         0
      1173         1         0      1176         1         0      1179         1         0
      1181         1         0      1185         1         0      1189         2         0
      1205         2         0      1216         1         0      1224         1         0
      1233         1         0      1236         1         0      1239         1         0
      1242         1         0      1245         1         0      1248         1         0
      1251         1         0      1253         1         0      1255         1         0
      1258         1         0      1260         1         0      1262         1         0
      1265         1         0      1268         1         0      1271         1         0
      1274         1         0      1278         1         0      1281         1         0
      1284         1         0      1287         1         0      1290         1         0
      1293         1         0      1296         1         0      1299         1         0
      1302         1         0      1305         1         0      1308         1         0
      1311         1         0      1314         1         0      1317         1         0
      1320         1         0      1323         1         0      1327         2         0
      1343         2         0      1354         1         0      1358         1         0
      1362         1         0      1364         1         0      1366         1         0
      1369         1         0      1372         1         0      1375         1         0
      1378         1         0      1381         1         0      1384         1         0
      1387         1         0      1390         1         0      1393         1         0
      1396         1         0      1399         1         0      1402         1         0
      1406         1         0      1411         1         0      1414         1         0
      1417         1         0      1420         1         0      1423         1         0
      1426         1         0      1429         1         0      1431         1         0
      1433         1         0      1436         1         0      1439         1         0
      1442         1         0      1445         1         0      1448         1         0
      1451         1         0      1454         1         0      1458         2         0
      1464         2         0      1467         2         0      1478         1         0
      1486         1         0      1495         1         0      1498         1         0
      1501         1         0      1503         1         0      1505         1         0
      1508         1         0      1510         1         0      1512         1         0
      1515         1         0      1517         1         0      1519         1         0
      1522         1         0      1524         1         0      1526         1         0
      1529         1         0      1532         1         0      1535         1         0
      1538         1         0      1542         1         0      1545         1         0
      1548         1         0      1551         1         0      1554         1         0
      1557         1         0      1560         1         0      1563         1         0
      1566         1         0      1569         1         0      1572         1         0
      1575         1         0      1578         1         0      1581         1         0
      1584         1         0      1587         1         0      1591         2         0
      1607         2         0      1618         1         0      1622         1         0
      1626         1         0      1628         1         0      1630         1         0
      1633         1         0      1636         1         0      1639         1         0
      1642         1         0      1645         1         0      1648         1         0
      1651         1         0      1654         1         0      1657         1         0
      1660         1         0      1663         1         0      1666         1         0
      1670         1         0      1675         1         0      1678         1         0
      1681         1         0      1684         1         0      1687         1         0
      1690         1         0      1693         1         0      1695         1         0
      1697         1         0      1700         1         0      1703         1         0
      1706         1         0      1709         1         0      1712         1         0
      1715         1         0      1718         1         0      1722         1         0
      1726         1         0      1729         1         0      1732         1         0
      1735         1         0      1737         1         0      1739         1         0
      1742         1         0      1745         1         0      1747         0         0
      1748         1         0      1752         1         0      1755         1         0
      1758         1         0      1760         0         0      1761         1         0
      1765         1         0      1768         1         0      1771         1         0
      1773         1         0      1777         1         0      1780         1         0
      1783         1         0      1786         1         0      1788         1         0
      1792         1         0      1796         1         0      1800         1         0
      1803         1         0      1806         1         0      1809         1         0
      1811         1         0      1813         1         0      1816         1         0
      1819         1         0      1821         0         0      1822         1         0
      1826         1         0      1829         1         0      1832         1         0
      1834         0         0      1835         1         0      1839         1         0
      1842         1         0      1845         1         0      1847         1         0
      1851         1         0      1854         1         0      1857         1         0
      1860         1         0      1862         1         0      1866         1         0
      1870         2         0      1886         2         0      1897         1         0
      1905         1         0      1914         1         0      1917         1         0
      1920         1         0      1922         1         0      1924         1         0
      1927         1         0      1929         1         0      1931         1         0
      1934         1         0      1936         1         0      1938         1         0
      1941         1         0      1943         1         0      1945         1         0
      1948         1         0      1951         2         0      1954         1         0
      1957         2         0      1961         1         0      1964         1         0
      1967         1         0      1970         1         0      1973         1         0
      1976         1         0      1979         1         0      1982         1         0
      1985         1         0      1988         1         0      1991         1         0
      1994         1         0      1997         1         0      2000         1         0
      2003         1         0      2006         1         0      2010         2         0
      2026         2         0      2037         1         0      2041         1         0
      2045         1         0      2047         1         0      2049         1         0
      2052         1         0      2055         1         0      2058         1         0
      2061         1         0      2064         1         0      2067         1         0
      2070         1         0      2073         1         0      2076         1         0
      2079         1         0      2082         1         0      2085         1         0
      2089         1         0      2094         1         0      2097         1         0
      2100         1         0      2103         1         0      2106         1         0
      2109         1         0      2112         1         0      2114         1         0
      2116         1         0      2119         1         0      2122         1         0
      2125         1         0      2128         1         0      2131         1         0
      2134         1         0      2137         1         0      2141         2         0
      2148         2         0      2159         1         0      2167         1         0
      2176         1         0      2179         1         0      2182         1         0
      2184         1         0      2186         1         0      2189         1         0
      2191         1         0      2193         1         0      2196         1         0
      2198         1         0      2200         1         0      2203         1         0
      2205         1         0      2207         1         0      2210         1         0
      2213         1         0      2216         1         0      2219         1         0
      2223         1         0      2226         1         0      2229         1         0
      2232         1         0      2235         1         0      2238         1         0
      2241         1         0      2244         1         0      2247         1         0
      2250         1         0      2253         1         0      2256         1         0
      2259         1         0      2262         1         0      2265         1         0
      2268         1         0      2272         1         0      2276         1         0
      2279         1         0      2282         1         0      2285         1         0
      2287         1         0      2289         1         0      2292         1         0
      2295         1         0      2297         0         0      2298         1         0
      2302         1         0      2305         1         0      2308         1         0
      2310         0         0      2311         1         0      2315         1         0
      2318         1         0      2321         1         0      2323         1         0
      2327         1         0      2330         1         0      2333         1         0
      2336         1         0      2338         1         0      2342         1         0
      2346         1         0      2350         1         0      2353         1         0
      2356         1         0      2359         1         0      2361         1         0
      2363         1         0      2366         1         0      2369         1         0
      2371         0         0      2372         1         0      2376         1         0
      2379         1         0      2382         1         0      2384         0         0
      2385         1         0      2389         1         0      2392         1         0
      2395         1         0      2397         1         0      2401         1         0
      2404         1         0      2407         1         0      2410         1         0
      2412         1         0      2416         1         0      2420         2         0
      2427         2         0      2438         1         0      2446         1         0
      2455         1         0      2458         1         0      2461         1         0
      2463         1         0      2465         1         0      2468         1         0
      2470         1         0      2472         1         0      2475         1         0
      2477         1         0      2479         1         0      2482         1         0
      2484         1         0      2486         1         0      2489         1         0
      2492         1         0      2495         1         0      2498         1         0
      2502         1         0      2505         1         0      2508         1         0
      2511         1         0      2514         1         0      2517         1         0
      2520         1         0      2523         1         0      2526         1         0
      2529         1         0      2532         1         0      2535         1         0
      2538         1         0      2541         1         0      2544         1         0
      2547         1         0      2551         2         0      2567         2         0
      2578         1         0      2586         1         0      2595         1         0
      2598         1         0      2601         1         0      2604         1         0
      2607         1         0      2610         1         0      2613         1         0
      2615         1         0      2617         1         0      2620         1         0
      2623         1         0      2626         1         0      2629         1         0
      2632         1         0      2635         1         0      2638         1         0
      2642         1         0      2645         1         0      2648         1         0
      2651         1         0      2654         1         0      2657         1         0
      2660         1         0      2663         1         0      2666         1         0
      2669         1         0      2672         1         0      2675         1         0
      2678         1         0      2681         1         0      2685         2         0
      2691         2         0      2694         2         0      2705         1         0
      2713         1         0      2722         1         0      2725         1         0
      2728         1         0      2730         1         0      2732         1         0
      2735         1         0      2737         1         0      2739         1         0
      2742         1         0      2744         1         0      2746         1         0
      2749         1         0      2751         1         0      2753         1         0
      2756         1         0      2759         1         0      2762         1         0
      2765         1         0      2769         1         0      2772         1         0
      2775         1         0      2778         1         0      2781         1         0
      2784         1         0      2787         1         0      2790         1         0
      2793         1         0      2796         1         0      2799         1         0
      2802         1         0      2805         1         0      2808         1         0
      2811         1         0      2814         1         0      2818         1         0
      2822         1         0      2825         1         0      2828         1         0
      2831         1         0      2833         1         0      2835         1         0
      2838         1         0      2841         1         0      2843         0         0
      2844         1         0      2848         1         0      2851         1         0
      2854         1         0      2856         0         0      2857         1         0
      2861         1         0      2864         1         0      2867         1         0
      2869         1         0      2873         1         0      2876         1         0
      2879         1         0      2882         1         0      2884         1         0
      2888         1         0      2892         2         0      2899         2         0
      2910         1         0      2918         1         0      2927         1         0
      2930         1         0      2933         1         0      2935         1         0
      2937         1         0      2940         1         0      2942         1         0
      2944         1         0      2947         1         0      2949         1         0
      2951         1         0      2954         1         0      2956         1         0
      2958         1         0      2961         1         0      2964         1         0
      2967         1         0      2970         1         0      2974         1         0
      2977         1         0      2980         1         0      2983         1         0
      2986         1         0      2989         1         0      2992         1         0
      2995         1         0      2998         1         0      3001         1         0
      3004         1         0      3007         1         0      3010         1         0
      3013         1         0      3016         1         0      3019         1         0
      3023         2         0      3039         2         0      3050         1         0
      3058         1         0      3067         1         0      3070         1         0
      3073         1         0      3075         1         0      3077         1         0
      3080         1         0      3082         1         0      3084         1         0
      3087         1         0      3089         1         0      3091         1         0
      3094         1         0      3096         1         0      3098         1         0
      3101         1         0      3104         2         0      3107         1         0
      3110         2         0      3114         1         0      3117         1         0
      3120         1         0      3123         1         0      3126         1         0
      3129         1         0      3132         1         0      3135         1         0
      3138         1         0      3141         1         0      3144         1         0
      3147         1         0      3150         1         0      3153         1         0
      3156         1         0      3159         1         0      3163         2         0
      3179         2         0      3190         1         0      3198         1         0
      3207         1         0      3210         1         0      3213         1         0
      3216         1         0      3219         1         0      3222         1         0
      3225         1         0      3227         1         0      3229         1         0
      3232         1         0      3234         1         0      3236         1         0
      3239         1         0      3242         1         0      3245         1         0
      3248         1         0      3252         1         0      3255         1         0
      3258         1         0      3261         1         0      3264         1         0
      3267         1         0      3270         1         0      3273         1         0
      3276         1         0      3279         1         0      3282         1         0
      3285         1         0      3288         1         0      3291         1         0
      3294         1         0      3297         1         0      3301         2         0
      3317         2         0      3328         1         0      3332         1         0
      3336         1         0      3338         1         0      3340         1         0
      3343         1         0      3346         1         0      3349         1         0
      3352         1         0      3355         1         0      3358         1         0
      3361         1         0      3364         1         0      3367         1         0
      3370         1         0      3373         1         0      3376         1         0
      3380         1         0      3385         1         0      3388         1         0
      3391         1         0      3394         1         0      3397         1         0
      3400         1         0      3403         1         0      3405         1         0
      3407         1         0      3410         1         0      3413         1         0
      3416         1         0      3419         1         0      3422         1         0
      3425         1         0      3428         1         0      3432         2         0
      3439         2         0      3450         1         0      3458         1         0
      3467         1         0      3470         1         0      3473         1         0
      3475         1         0      3477         1         0      3480         1         0
      3482         1         0      3484         1         0      3487         1         0
      3489         1         0      3491         1         0      3494         1         0
      3496         1         0      3498         1         0      3501         1         0
      3504         1         0      3507         1         0      3510         1         0
      3514         1         0      3517         1         0      3520         1         0
      3523         1         0      3526         1         0      3529         1         0
      3532         1         0      3535         1         0      3538         1         0
      3541         1         0      3544         1         0      3547         1         0
      3550         1         0      3553         1         0      3556         1         0
      3559         1         0      3563         2         0      3579         2         0
      3590         1         0      3594         1         0      3598         1         0
      3600         1         0      3602         1         0      3605         1         0
      3608         1         0      3611         1         0      3614         1         0
      3617         1         0      3620         1         0      3623         1         0
      3626         1         0      3629         1         0      3632         1         0
      3635         1         0      3638         1         0      3642         1         0
      3647         1         0      3650         1         0      3653         1         0
      3656         1         0      3659         1         0      3662         1         0
      3665         1         0      3667         1         0      3669         1         0
      3672         1         0      3675         1         0      3678         1         0
      3681         1         0      3684         1         0      3687         1         0
      3690         1         0      3694         2         0      3710         2         0
      3721         1         0      3725         1         0      3729         1         0
      3731         1         0      3733         1         0      3736         1         0
      3739         1         0      3742         1         0      3745         1         0
      3748         1         0      3751         1         0      3754         1         0
      3757         1         0      3760         1         0      3763         1         0
      3766         1         0      3769         1         0      3773         1         0
      3778         1         0      3781         1         0      3784         1         0
      3787         1         0      3790         1         0      3793         1         0
      3796         1         0      3798         1         0      3800         1         0
      3803         1         0      3806         1         0      3809         1         0
      3812         1         0      3815         1         0      3818         1         0
      3821         1         0      3825         2         0      3841         2         0
      3852         1         0      3856         1         0      3860         1         0
      3862         1         0      3864         1         0      3867         1         0
      3870         1         0      3873         1         0      3876         1         0
      3879         1         0      3882         1         0      3885         1         0
      3888         1         0      3891         1         0      3894         1         0
      3897         1         0      3900         1         0      3904         1         0
      3909         1         0      3912         1         0      3915         1         0
      3918         1         0      3921         1         0      3924         1         0
      3927         1         0      3929         1         0      3931         1         0
      3934         1         0      3937         1         0      3940         1         0
      3943         1         0      3946         1         0      3949         1         0
      3952         1         0      3956         1         0      3960         1         0
      3963         1         0      3966         1         0      3969         1         0
      3971         1         0      3973         1         0      3976         1         0
      3979         1         0      3981         0         0      3982         1         0
      3986         1         0      3989         1         0      3992         1         0
      3994         0         0      3995         1         0      3999         1         0
      4002         1         0      4005         1         0      4007         1         0
      4011         1         0      4014         1         0      4017         1         0
      4020         1         0      4022         1         0      4026         1         0
      4030         2         0      4046         2         0      4057         1         0
      4065         1         0      4074         1         0      4077         1         0
      4080         1         0      4083         1         0      4086         1         0
      4089         1         0      4092         1         0      4094         1         0
      4096         1         0      4099         1         0      4102         1         0
      4105         1         0      4108         1         0      4111         1         0
      4114         1         0      4117         1         0      4121         1         0
      4124         1         0      4127         1         0      4130         1         0
      4133         1         0      4136         1         0      4139         1         0
      4142         1         0      4145         1         0      4148         1         0
      4151         1         0      4154         1         0      4157         1         0
      4160         1         0      4164         2         0      4180         2         0
      4191         1         0      4195         1         0      4199         1         0
      4201         1         0      4203         1         0      4206         1         0
      4209         1         0      4212         1         0      4215         1         0
      4218         1         0      4221         1         0      4224         1         0
      4227         1         0      4230         1         0      4233         1         0
      4236         1         0      4239         1         0      4243         1         0
      4248         1         0      4251         1         0      4254         1         0
      4257         1         0      4260         1         0      4263         1         0
      4266         1         0      4268         1         0      4270         1         0
      4273         1         0      4276         1         0      4279         1         0
      4282         1         0      4285         1         0      4288         1         0
      4291         1         0      4295         1         0      4299         1         0
      4303         1         0      4307         1         0      4311         1         0
      4315         2         0      4325         1         0      4333         1         0
      4342         1         0      4345         1         0      4348         1         0
      4350         1         0      4352         1         0      4355         1         0
      4357         1         0      4359         1         0      4362         1         0
      4364         1         0      4366         1         0      4369         1         0
      4371         1         0      4373         1         0      4376         1         0
      4379         1         0      4382         1         0      4385         1         0
      4389         1         0      4392         1         0      4395         1         0
      4398         1         0      4401         1         0      4404         1         0
      4407         1         0      4410         1         0      4413         1         0
      4416         1         0      4419         1         0      4422         1         0
      4425         1         0      4428         1         0      4431         1         0
      4434         1         0      4438         2         0      4445         2         0
      4456         1         0      4464         1         0      4473         1         0
      4476         1         0      4479         1         0      4482         1         0
      4485         1         0      4488         1         0      4491         1         0
      4493         1         0      4495         1         0      4498         1         0
      4501         1         0      4504         1         0      4507         1         0
      4510         1         0      4513         1         0      4516         1         0
      4520         1         0      4523         1         0      4526         1         0
      4529         1         0      4532         1         0      4535         1         0
      4538         1         0      4541         1         0      4544         1         0
      4547         1         0      4550         1         0      4553         1         0
      4556         1         0      4559         1         0      4562         1         0
      4565         1         0      4569         2         0      4576         2         0
      4587         1         0      4595         1         0      4604         1         0
      4607         1         0      4610         1         0      4612         1         0
      4614         1         0      4617         1         0      4619         1         0
      4621         1         0      4624         1         0      4626         1         0
      4628         1         0      4631         1         0      4633         1         0
      4635         1         0      4638         1         0      4641         1         0
      4644         1         0      4647         1         0      4651         1         0
      4654         1         0      4657         1         0      4660         1         0
      4663         1         0      4666         1         0      4669         1         0
      4672         1         0      4675         1         0      4678         1         0
      4681         1         0      4684         1         0      4687         1         0
      4690         1         0      4693         1         0      4696         1         0
      4700         2         0      4716         2         0      4727         1         0
      4731         1         0      4735         1         0      4737         1         0
      4739         1         0      4742         1         0      4745         1         0
      4748         1         0      4751         1         0      4754         1         0
      4757         1         0      4760         1         0      4763         1         0
      4766         1         0      4769         1         0      4772         1         0
      4775         1         0      4779         1         0      4784         1         0
      4787         1         0      4790         1         0      4793         1         0
      4796         1         0      4799         1         0      4802         1         0
      4804         1         0      4806         1         0      4809         1         0
      4812         1         0      4815         1         0      4818         1         0
      4821         1         0      4824         1         0      4827         1         0
      4831         2         0      4838         2         0      4849         1         0
      4857         1         0      4866         1         0      4869         1         0
      4872         1         0      4874         1         0      4876         1         0
      4879         1         0      4881         1         0      4883         1         0
      4886         1         0      4888         1         0      4890         1         0
      4893         1         0      4895         1         0      4897         1         0
      4900         1         0      4903         1         0      4906         1         0
      4909         1         0      4913         1         0      4916         1         0
      4919         1         0      4922         1         0      4925         1         0
      4928         1         0      4931         1         0      4934         1         0
      4937         1         0      4940         1         0      4943         1         0
      4946         1         0      4949         1         0      4952         1         0
      4955         1         0      4958         1         0      4962         2         0
      4978         2         0      4989         1         0      4993         1         0
      4997         1         0      4999         1         0      5001         1         0
      5004         1         0      5007         1         0      5010         1         0
      5013         1         0      5016         1         0      5019         1         0
      5022         1         0      5025         1         0      5028         1         0
      5031         1         0      5034         1         0      5037         1         0
      5041         1         0      5046         1         0      5049         1         0
      5052         1         0      5055         1         0      5058         1         0
      5061         1         0      5064         1         0      5066         1         0
      5068         1         0      5071         1         0      5074         1         0
      5077         1         0      5080         1         0      5083         1         0
      5086         1         0      5089         1         0      5093         2         0
      5100         2         0      5111         1         0      5119         1         0
      5128         1         0      5131         1         0      5134         1         0
      5136         1         0      5138         1         0      5141         1         0
      5143         1         0      5145         1         0      5148         1         0
      5150         1         0      5152         1         0      5155         1         0
      5157         1         0      5159         1         0      5162         1         0
      5165         1         0      5168         1         0      5171         1         0
      5175         1         0      5178         1         0      5181         1         0
      5184         1         0      5187         1         0      5190         1         0
      5193         1         0      5196         1         0      5199         1         0
      5202         1         0      5205         1         0      5208         1         0
      5211         1         0      5214         1         0      5217         1         0
      5220         1         0      5224         1         0      5228         1         0
      5231         1         0      5234         1         0      5237         1         0
      5239         1         0      5241         1         0      5244         1         0
      5247         1         0      5249         0         0      5250         1         0
      5254         1         0      5257         1         0      5260         1         0
      5262         0         0      5263         1         0      5267         1         0
      5270         1         0      5273         1         0      5275         1         0
      5279         1         0      5282         1         0      5285         1         0
      5288         1         0      5290         1         0      5294         1         0
      5298         2         0      5314         2         0      5325         1         0
      5333         1         0      5342         1         0      5345         1         0
      5348         1         0      5350         1         0      5352         1         0
      5355         1         0      5357         1         0      5359         1         0
      5362         1         0      5364         1         0      5366         1         0
      5369         1         0      5371         1         0      5373         1         0
      5376         1         0      5379         2         0      5382         1         0
      5385         2         0      5389         1         0      5392         1         0
      5395         1         0      5398         1         0      5401         1         0
      5404         1         0      5407         1         0      5410         1         0
      5413         1         0      5416         1         0      5419         1         0
      5422         1         0      5425         1         0      5428         1         0
      5431         1         0      5434         1         0      5438         1         0
      5442         1         0      5445         1         0      5448         1         0
      5451         1         0      5453         1         0      5455         1         0
      5458         1         0      5461         1         0      5463         0         0
      5464         1         0      5468         1         0      5471         1         0
      5474         1         0      5476         0         0      5477         1         0
      5481         1         0      5484         1         0      5487         1         0
      5489         1         0      5493         1         0      5496         1         0
      5499         1         0      5502         1         0      5504         1         0
      5508         1         0      5512         2         0      5519         2         0
      5530         1         0      5538         1         0      5547         1         0
      5550         1         0      5553         1         0      5555         1         0
      5557         1         0      5560         1         0      5562         1         0
      5564         1         0      5567         1         0      5569         1         0
      5571         1         0      5574         1         0      5576         1         0
      5578         1         0      5581         1         0      5584         1         0
      5587         1         0      5590         1         0      5594         1         0
      5597         1         0      5600         1         0      5603         1         0
      5606         1         0      5609         1         0      5612         1         0
      5615         1         0      5618         1         0      5621         1         0
      5624         1         0      5627         1         0      5630         1         0
      5633         1         0      5636         1         0      5639         1         0
      5643         2         0      5659         2         0      5670         1         0
      5674         1         0      5678         1         0      5680         1         0
      5682         1         0      5685         1         0      5688         1         0
      5691         1         0      5694         1         0      5697         1         0
      5700         1         0      5703         1         0      5706         1         0
      5709         1         0      5712         1         0      5715         1         0
      5718         1         0      5722         1         0      5727         1         0
      5730         1         0      5733         1         0      5736         1         0
      5739         1         0      5742         1         0      5745         1         0
      5747         1         0      5749         1         0      5752         1         0
      5755         1         0      5758         1         0      5761         1         0
      5764         1         0      5767         1         0      5770         1         0
      5774         2         0      5790         2         0      5801         1         0
      5809         1         0      5818         1         0      5821         1         0
      5824         1         0      5827         1         0      5830         1         0
      5833         1         0      5836         1         0      5838         1         0
      5840         1         0      5843         1         0      5845         1         0
      5847         1         0      5850         1         0      5853         1         0
      5856         1         0      5859         1         0      5863         1         0
      5866         1         0      5869         1         0      5872         1         0
      5875         1         0      5878         1         0      5881         1         0
      5884         1         0      5887         1         0      5890         1         0
      5893         1         0      5896         1         0      5899         1         0
      5902         1         0      5905         1         0      5908         1         0
      5912         1         0      5916         1         0      5919         1         0
      5922         1         0      5925         1         0      5927         1         0
      5929         1         0      5932         1         0      5935         1         0
      5937         0         0      5938         1         0      5942         1         0
      5945         1         0      5948         1         0      5950         0         0
      5951         1         0      5955         1         0      5958         1         0
      5961         1         0      5963         1         0      5967         1         0
      5970         1         0      5973         1         0      5976         1         0
      5978         1         0      5982         1         0      5986         2         0
      6002         2         0      6013         1         0      6021         1         0
      6030         1         0      6033         1         0      6036         1         0
      6038         1         0      6040         1         0      6043         1         0
      6045         1         0      6047         1         0      6050         1         0
      6052         1         0      6054         1         0      6057         1         0
      6059         1         0      6061         1         0      6064         1         0
      6067         2         0      6070         1         0      6073         2         0
      6077         1         0      6080         1         0      6083         1         0
      6086         1         0      6089         1         0      6092         1         0
      6095         1         0      6098         1         0      6101         1         0
      6104         1         0      6107         1         0      6110         1         0
      6113         1         0      6116         1         0      6119         1         0
      6122         1         0      6126         2         0      6132         2         0
      6135         2         0      6146         1         0      6154         1         0
      6163         1         0      6166         1         0      6169         1         0
      6171         1         0      6173         1         0      6176         1         0
      6178         1         0      6180         1         0      6183         1         0
      6185         1         0      6187         1         0      6190         1         0
      6192         1         0      6194         1         0      6197         1         0
      6200         1         0      6203         1         0      6206         1         0
      6210         1         0      6213         1         0      6216         1         0
      6219         1         0      6222         1         0      6225         1         0
      6228         1         0      6231         1         0      6234         1         0
      6237         1         0      6240         1         0      6243         1         0
      6246         1         0      6249         1         0      6252         1         0
      6255         1         0      6259         2         0      6275         2         0
      6286         1         0      6294         1         0      6303         1         0
      6306         1         0      6309         1         0      6312         1         0
      6315         1         0      6318         1         0      6321         1         0
      6323         1         0      6325         1         0      6328         1         0
      6330         1         0      6332         1         0      6335         1         0
      6338         1         0      6341         1         0      6344         1         0
      6348         1         0      6351         1         0      6354         1         0
      6357         1         0      6360         1         0      6363         1         0
      6366         1         0      6369         1         0      6372         1         0
      6375         1         0      6378         1         0      6381         1         0
      6384         1         0      6387         1         0      6390         1         0
      6393         1         0      6397         2         0      6404         2         0
      6415         1         0      6423         1         0      6432         1         0
      6435         1         0      6438         1         0      6441         1         0
      6444         1         0      6447         1         0      6450         1         0
      6452         1         0      6454         1         0      6457         1         0
      6460         1         0      6463         1         0      6466         1         0
      6469         1         0      6472         1         0      6475         1         0
      6479         1         0      6482         1         0      6485         1         0
      6488         1         0      6491         1         0      6494         1         0
      6497         1         0      6500         1         0      6503         1         0
      6506         1         0      6509         1         0      6512         1         0
      6515         1         0      6518         1         0      6521         1         0
      6524         1         0      6528         2         0      6544         2         0
      6555         1         0      6563         1         0      6572         1         0
      6575         1         0      6578         1         0      6580         1         0
      6582         1         0      6585         1         0      6587         1         0
      6589         1         0      6592         1         0      6594         1         0
      6596         1         0      6599         1         0      6601         1         0
      6603         1         0      6606         1         0      6609         2         0
      6612         1         0      6615         2         0      6619         1         0
      6622         1         0      6625         1         0      6628         1         0
      6631         1         0      6634         1         0      6637         1         0
      6640         1         0      6643         1         0      6646         1         0
      6649         1         0      6652         1         0      6655         1         0
      6658         1         0      6661         1         0      6664         1         0
      6668         2         0      6684         2         0      6695         1         0
      6699         1         0      6703         1         0      6705         1         0
      6707         1         0      6710         1         0      6713         1         0
      6716         1         0      6719         1         0      6722         1         0
      6725         1         0      6728         1         0      6731         1         0
      6734         1         0      6737         1         0      6740         1         0
      6743         1         0      6747         1         0      6752         1         0
      6755         1         0      6758         1         0      6761         1         0
      6764         1         0      6767         1         0      6770         1         0
      6772         1         0      6774         1         0      6777         1         0
      6780         1         0      6783         1         0      6786         1         0
      6789         1         0      6792         1         0      6795         1         0
      6799         1         0      6803         1         0      6806         1         0
      6809         1         0      6812         1         0      6814         1         0
      6816         1         0      6819         1         0      6822         1         0
      6824         0         0      6825         1         0      6829         1         0
      6832         1         0      6835         1         0      6837         0         0
      6838         1         0      6842         1         0      6845         1         0
      6848         1         0      6850         1         0      6854         1         0
      6857         1         0      6860         1         0      6863         1         0
      6865         1         0      6869         1         0      6873         2         0
      6889         2         0      6900         1         0      6908         1         0
      6917         1         0      6920         1         0      6923         1         0
      6926         1         0      6929         1         0      6932         1         0
      6935         1         0      6937         1         0      6939         1         0
      6942         1         0      6944         1         0      6946         1         0
      6949         1         0      6952         1         0      6955         1         0
      6958         1         0      6962         1         0      6965         1         0
      6968         1         0      6971         1         0      6974         1         0
      6977         1         0      6980         1         0      6983         1         0
      6986         1         0      6989         1         0      6992         1         0
      6995         1         0      6998         1         0      7001         1         0
      7004         1         0      7007         1         0      7011         1         0
      7015         1         0      7018         1         0      7021         1         0
      7024         1         0      7026         1         0      7028         1         0
      7031         1         0      7034         1         0      7036         0         0
      7037         1         0      7041         1         0      7044         1         0
      7047         1         0      7049         0         0      7050         1         0
      7054         1         0      7057         1         0      7060         1         0
      7062         1         0      7066         1         0      7069         1         0
      7072         1         0      7075         1         0      7077         1         0
      7081         1         0      7085         1         0      7089         1         0
      7093         1         0      7097         1         0      7101         1         0
      7105         2         0      7115         1         0      7123         1         0
      7132         1         0      7135         1         0      7138         1         0
      7140         1         0      7142         1         0      7145         1         0
      7147         1         0      7149         1         0      7152         1         0
      7154         1         0      7156         1         0      7159         1         0
      7161         1         0      7163         1         0      7166         1         0
      7169         1         0      7172         1         0      7175         1         0
      7179         1         0      7182         1         0      7185         1         0
      7188         1         0      7191         1         0      7194         1         0
      7197         1         0      7200         1         0      7203         1         0
      7206         1         0      7209         1         0      7212         1         0
      7215         1         0      7218         1         0      7221         1         0
      7224         1         0      7228         1         0      7232         1         0
      7235         1         0      7238         1         0      7241         1         0
      7243         1         0      7245         1         0      7248         1         0
      7251         1         0      7253         0         0      7254         1         0
      7258         1         0      7261         1         0      7264         1         0
      7266         0         0      7267         1         0      7271         1         0
      7274         1         0      7277         1         0      7279         1         0
      7283         1         0      7286         1         0      7289         1         0
      7292         1         0      7294         1         0      7298         1         0
      7302         2         0      7318         2         0      7329         1         0
      7337         1         0      7346         1         0      7349         1         0
      7352         1         0      7355         1         0      7358         1         0
      7361         1         0      7364         1         0      7366         1         0
      7368         1         0      7371         1         0      7373         1         0
      7375         1         0      7378         1         0      7381         1         0
      7384         1         0      7387         1         0      7391         1         0
      7394         1         0      7397         1         0      7400         1         0
      7403         1         0      7406         1         0      7409         1         0
      7412         1         0      7415         1         0      7418         1         0
      7421         1         0      7424         1         0      7427         1         0
      7430         1         0      7433         1         0      7436         1         0
      7440         2         0      7447         2         0      7458         1         0
      7466         1         0      7475         1         0      7478         1         0
      7481         1         0      7483         1         0      7485         1         0
      7488         1         0      7490         1         0      7492         1         0
      7495         1         0      7497         1         0      7499         1         0
      7502         1         0      7504         1         0      7506         1         0
      7509         1         0      7512         1         0      7515         1         0
      7518         1         0      7522         1         0      7525         1         0
      7528         1         0      7531         1         0      7534         1         0
      7537         1         0      7540         1         0      7543         1         0
      7546         1         0      7549         1         0      7552         1         0
      7555         1         0      7558         1         0      7561         1         0
      7564         1         0      7567         1         0      7571         2         0
      7577         2         0      7580         2         0      7591         1         0
      7599         1         0      7608         1         0      7611         1         0
      7614         1         0      7616         1         0      7618         1         0
      7621         1         0      7623         1         0      7625         1         0
      7628         1         0      7630         1         0      7632         1         0
      7635         1         0      7637         1         0      7639         1         0
      7642         1         0      7645         1         0      7648         1         0
      7651         1         0      7655         1         0      7658         1         0
      7661         1         0      7664         1         0      7667         1         0
      7670         1         0      7673         1         0      7676         1         0
      7679         1         0      7682         1         0      7685         1         0
      7688         1         0      7691         1         0      7694         1         0
      7697         1         0      7700         1         0      7704         1         0
      7708         1         0      7711         1         0      7714         1         0
      7717         1         0      7719         1         0      7721         1         0
      7724         1         0      7727         1         0      7729         0         0
      7730         1         0      7734         1         0      7737         1         0
      7740         1         0      7742         0         0      7743         1         0
      7747         1         0      7750         1         0      7753         1         0
      7755         1         0      7759         1         0      7762         1         0
      7765         1         0      7768         1         0      7770         1         0
      7774         1         0      7778         2         0      7794         2         0
      7805         1         0      7813         1         0      7822         1         0
      7825         1         0      7828         1         0      7831         1         0
      7834         1         0      7837         1         0      7840         1         0
      7842         1         0      7844         1         0      7847         1         0
      7850         1         0      7853         1         0      7856         1         0
      7859         1         0      7862         1         0      7865         1         0
      7869         1         0      7872         1         0      7875         1         0
      7878         1         0      7881         1         0      7884         1         0
      7887         1         0      7890         1         0      7893         1         0
      7896         1         0      7899         1         0      7902         1         0
      7905         1         0      7908         1         0      7912         2         0
      7928         2         0      7939         1         0      7943         1         0
      7947         1         0      7949         1         0      7951         1         0
      7954         1         0      7957         1         0      7960         1         0
      7963         1         0      7966         1         0      7969         1         0
      7972         1         0      7975         1         0      7978         1         0
      7981         1         0      7984         1         0      7987         1         0
      7991         1         0      7996         1         0      7999         1         0
      8002         1         0      8005         1         0      8008         1         0
      8011         1         0      8014         1         0      8016         1         0
      8018         1         0      8021         1         0      8024         1         0
      8027         1         0      8030         1         0      8033         1         0
      8036         1         0      8039         1         0      8043         2         0
      8049         2         0      8052         2         0      8063         1         0
      8071         1         0      8080         1         0      8083         1         0
      8086         1         0      8088         1         0      8090         1         0
      8093         1         0      8095         1         0      8097         1         0
      8100         1         0      8102         1         0      8104         1         0
      8107         1         0      8109         1         0      8111         1         0
      8114         1         0      8117         1         0      8120         1         0
      8123         1         0      8127         1         0      8130         1         0
      8133         1         0      8136         1         0      8139         1         0
      8142         1         0      8145         1         0      8148         1         0
      8151         1         0      8154         1         0      8157         1         0
      8160         1         0      8163         1         0      8166         1         0
      8169         1         0      8172         1         0      8176         2         0
      8192         2         0      8203         1         0      8207         1         0
      8211         1         0      8213         1         0      8215         1         0
      8218         1         0      8221         1         0      8224         1         0
      8227         1         0      8230         1         0      8233         1         0
      8236         1         0      8239         1         0      8242         1         0
      8245         1         0      8248         1         0      8251         1         0
      8255         1         0      8260         1         0      8263         1         0
      8266         1         0      8269         1         0      8272         1         0
      8275         1         0      8278         1         0      8280         1         0
      8282         1         0      8285         1         0      8288         1         0
      8291         1         0      8294         1         0      8297         1         0
      8300         1         0      8303         1         0      8307         1         0
      8311         1         0      8314         1         0      8317         1         0
      8320         1         0      8322         1         0      8324         1         0
      8327         1         0      8330         1         0      8332         0         0
      8333         1         0      8337         1         0      8340         1         0
      8343         1         0      8345         0         0      8346         1         0
      8350         1         0      8353         1         0      8356         1         0
      8358         1         0      8362         1         0      8365         1         0
      8368         1         0      8371         1         0      8373         1         0
      8377         1         0      8381         2         0      8397         2         0
      8408         1         0      8416         1         0      8425         1         0
      8428         1         0      8431         1         0      8433         1         0
      8435         1         0      8438         1         0      8440         1         0
      8442         1         0      8445         1         0      8447         1         0
      8449         1         0      8452         1         0      8454         1         0
      8456         1         0      8459         1         0      8462         2         0
      8465         1         0      8468         2         0      8472         1         0
      8475         1         0      8478         1         0      8481         1         0
      8484         1         0      8487         1         0      8490         1         0
      8493         1         0      8496         1         0      8499         1         0
      8502         1         0      8505         1         0      8508         1         0
      8511         1         0      8514         1         0      8517         1         0
      8521         1         0      8525         1         0      8528         1         0
      8531         1         0      8534         1         0      8536         1         0
      8538         1         0      8541         1         0      8544         1         0
      8546         0         0      8547         1         0      8551         1         0
      8554         1         0      8557         1         0      8559         0         0
      8560         1         0      8564         1         0      8567         1         0
      8570         1         0      8572         1         0      8576         1         0
      8579         1         0      8582         1         0      8585         1         0
      8587         1         0      8591         1         0      8595         2         0
      8601         2         0      8604         2         0      8615         1         0
      8623         1         0      8632         1         0      8635         1         0
      8638         1         0      8640         1         0      8642         1         0
      8645         1         0      8647         1         0      8649         1         0
      8652         1         0      8654         1         0      8656         1         0
      8659         1         0      8661         1         0      8663         1         0
      8666         1         0      8669         1         0      8672         1         0
      8675         1         0      8679         1         0      8682         1         0
      8685         1         0      8688         1         0      8691         1         0
      8694         1         0      8697         1         0      8700         1         0
      8703         1         0      8706         1         0      8709         1         0
      8712         1         0      8715         1         0      8718         1         0
      8721         1         0      8724         1         0      8728         2         0
      8744         2         0      8755         1         0      8759         1         0
      8763         1         0      8765         1         0      8767         1         0
      8770         1         0      8773         1         0      8776         1         0
      8779         1         0      8782         1         0      8785         1         0
      8788         1         0      8791         1         0      8794         1         0
      8797         1         0      8800         1         0      8803         1         0
      8807         1         0      8812         1         0      8815         1         0
      8818         1         0      8821         1         0      8824         1         0
      8827         1         0      8830         1         0      8832         1         0
      8834         1         0      8837         1         0      8840         1         0
      8843         1         0      8846         1         0      8849         1         0
      8852         1         0      8855         1         0      8859         2         0
      8866         2         0      8877         1         0      8885         1         0
      8894         1         0      8897         1         0      8900         1         0
      8902         1         0      8904         1         0      8907         1         0
      8909         1         0      8911         1         0      8914         1         0
      8916         1         0      8918         1         0      8921         1         0
      8923         1         0      8925         1         0      8928         1         0
      8931         1         0      8934         1         0      8937         1         0
      8941         1         0      8944         1         0      8947         1         0
      8950         1         0      8953         1         0      8956         1         0
      8959         1         0      8962         1         0      8965         1         0
      8968         1         0      8971         1         0      8974         1         0
      8977         1         0      8980         1         0      8983         1         0
      8986         1         0      8990         2         0      9006         2         0
      9017         1         0      9021         1         0      9025         1         0
      9027         1         0      9029         1         0      9032         1         0
      9035         1         0      9038         1         0      9041         1         0
      9044         1         0      9047         1         0      9050         1         0
      9053         1         0      9056         1         0      9059         1         0
      9062         1         0      9065         1         0      9069         1         0
      9074         1         0      9077         1         0      9080         1         0
      9083         1         0      9086         1         0      9089         1         0
      9092         1         0      9094         1         0      9096         1         0
      9099         1         0      9102         1         0      9105         1         0
      9108         1         0      9111         1         0      9114         1         0
      9117         1         0      9121         1         0      9125         1         0
      9128         1         0      9131         1         0      9134         1         0
      9136         1         0      9138         1         0      9141         1         0
      9144         1         0      9146         0         0      9147         1         0
      9151         1         0      9154         1         0      9157         1         0
      9159         0         0      9160         1         0      9164         1         0
      9167         1         0      9170         1         0      9172         1         0
      9176         1         0      9179         1         0      9182         1         0
      9185         1         0      9187         1         0      9191         1         0
      9195         2         0      9202         2         0      9213         1         0
      9221         1         0      9230         1         0      9233         1         0
      9236         1         0      9238         1         0      9240         1         0
      9243         1         0      9245         1         0      9247         1         0
      9250         1         0      9252         1         0      9254         1         0
      9257         1         0      9259         1         0      9261         1         0
      9264         1         0      9267         1         0      9270         1         0
      9273         1         0      9277         1         0      9280         1         0
      9283         1         0      9286         1         0      9289         1         0
      9292         1         0      9295         1         0      9298         1         0
      9301         1         0      9304         1         0      9307         1         0
      9310         1         0      9313         1         0      9316         1         0
      9319         1         0      9322         1         0      9326         2         0
      9333         2         0      9344         1         0      9352         1         0
      9361         1         0      9364         1         0      9367         1         0
      9370         1         0      9373         1         0      9376         1         0
      9379         1         0      9381         1         0      9383         1         0
      9386         1         0      9389         1         0      9392         1         0
      9395         1         0      9398         1         0      9401         1         0
      9404         1         0      9408         1         0      9411         1         0
      9414         1         0      9417         1         0      9420         1         0
      9423         1         0      9426         1         0      9429         1         0
      9432         1         0      9435         1         0      9438         1         0
      9441         1         0      9444         1         0      9447         1         0
      9450         1         0      9453         1         0      9457         2         0
      9473         2         0      9484         1         0      9492         1         0
      9501         1         0      9504         1         0      9507         1         0
      9510         1         0      9513         1         0      9516         1         0
      9519         1         0      9521         1         0      9523         1         0
      9526         1         0      9529         1         0      9532         1         0
      9535         1         0      9538         1         0      9541         1         0
      9544         1         0      9548         1         0      9551         1         0
      9554         1         0      9557         1         0      9560         1         0
      9563         1         0      9566         1         0      9569         1         0
      9572         1         0      9575         1         0      9578         1         0
      9581         1         0      9584         1         0      9587         1         0
      9591         2         0      9598         2         0      9609         1         0
      9617         1         0      9626         1         0      9629         1         0
      9632         1         0      9635         1         0      9638         1         0
      9641         1         0      9644         1         0      9646         1         0
      9648         1         0      9651         1         0      9654         1         0
      9657         1         0      9660         1         0      9663         1         0
      9666         1         0      9669         1         0      9673         1         0
      9676         1         0      9679         1         0      9682         1         0
      9685         1         0      9688         1         0      9691         1         0
      9694         1         0      9697         1         0      9700         1         0
      9703         1         0      9706         1         0      9709         1         0
      9712         1         0      9715         1         0      9718         1         0
      9722         2         0      9738         2         0      9749         1         0
      9757         1         0      9766         1         0      9769         1         0
      9772         1         0      9774         1         0      9776         1         0
      9779         1         0      9781         1         0      9783         1         0
      9786         1         0      9788         1         0      9790         1         0
      9793         1         0      9795         1         0      9797         1         0
      9800         1         0      9803         2         0      9806         1         0
      9809         2         0      9813         1         0      9816         1         0
      9819         1         0      9822         1         0      9825         1         0
      9828         1         0      9831         1         0      9834         1         0
      9837         1         0      9840         1         0      9843         1         0
      9846         1         0      9849         1         0      9852         1         0
      9855         1         0      9858         1         0      9862         1         0
      9866         1         0      9869         1         0      9872         1         0
      9875         1         0      9877         1         0      9879         1         0
      9882         1         0      9885         1         0      9887         0         0
      9888         1         0      9892         1         0      9895         1         0
      9898         1         0      9900         0         0      9901         1         0
      9905         1         0      9908         1         0      9911         1         0
      9913         1         0      9917         1         0      9920         1         0
      9923         1         0      9926         1         0      9928         1         0
      9932         1         0      9936         2         0      9952         2         0
      9963         1         0      9971         1         0      9980         1         0
      9983         1         0      9986         1         0      9989         1         0
      9992         1         0      9995         1         0      9998         1         0
     10000         1         0     10002         1         0     10005         1         0
     10007         1         0     10009         1         0     10012         1         0
     10015         1         0     10018         1         0     10021         1         0
     10025         1         0     10028         1         0     10031         1         0
     10034         1         0     10037         1         0     10040         1         0
     10043         1         0     10046         1         0     10049         1         0
     10052         1         0     10055         1         0     10058         1         0
     10061         1         0     10064         1         0     10067         1         0
     10070         1         0     10074         1         0     10078         1         0
     10081         1         0     10084         1         0     10087         1         0
     10089         1         0     10091         1         0     10094         1         0
     10097         1         0     10099         0         0     10100         1         0
     10104         1         0     10107         1         0     10110         1         0
     10112         0         0     10113         1         0     10117         1         0
     10120         1         0     10123         1         0     10125         1         0
     10129         1         0     10132         1         0     10135         1         0
     10138         1         0     10140         1         0     10144         1         0
     10148         1         0     10152         1         0     10155         1         0
     10158         1         0     10161         1         0     10163         1         0
     10165         1         0     10168         1         0     10171         1         0
     10173         0         0     10174         1         0     10178         1         0
     10181         1         0     10184         1         0     10186         0         0
     10187         1         0     10191         1         0     10194         1         0
     10197         1         0     10199         1         0     10203         1         0
     10206         1         0     10209         1         0     10212         1         0
     10214         1         0     10218         1         0     10222         2         0
     10229         2         0     10240         1         0     10248         1         0
     10257         1         0     10260         1         0     10263         1         0
     10265         1         0     10267         1         0     10270         1         0
     10272         1         0     10274         1         0     10277         1         0
     10279         1         0     10281         1         0     10284         1         0
     10286         1         0     10288         1         0     10291         1         0
     10294         1         0     10297         1         0     10300         1         0
     10304         1         0     10307         1         0     10310         1         0
     10313         1         0     10316         1         0     10319         1         0
     10322         1         0     10325         1         0     10328         1         0
     10331         1         0     10334         1         0     10337         1         0
     10340         1         0     10343         1         0     10346         1         0
     10349         1         0     10353         2         0     10359         2         0
     10362         2         0     10373         1         0     10381         1         0
     10390         1         0     10393         1         0     10396         1         0
     10398         1         0     10400         1         0     10403         1         0
     10405         1         0     10407         1         0     10410         1         0
     10412         1         0     10414         1         0     10417         1         0
     10419         1         0     10421         1         0     10424         1         0
     10427         1         0     10430         1         0     10433         1         0
     10437         1         0     10440         1         0     10443         1         0
     10446         1         0     10449         1         0     10452         1         0
     10455         1         0     10458         1         0     10461         1         0
     10464         1         0     10467         1         0     10470         1         0
     10473         1         0     10476         1         0     10479         1         0
     10482         1         0     10486         2         0     10492         2         0
     10495         2         0     10506         1         0     10514         1         0
     10523         1         0     10526         1         0     10529         1         0
     10531         1         0     10533         1         0     10536         1         0
     10538         1         0     10540         1         0     10543         1         0
     10545         1         0     10547         1         0     10550         1         0
     10552         1         0     10554         1         0     10557         1         0
     10560         1         0     10563         1         0     10566         1         0
     10570         1         0     10573         1         0     10576         1         0
     10579         1         0     10582         1         0     10585         1         0
     10588         1         0     10591         1         0     10594         1         0
     10597         1         0     10600         1         0     10603         1         0
     10606         1         0     10609         1         0     10612         1         0
     10615         1         0     10619         1         0     10623         1         0
     10626         1         0     10629         1         0     10632         1         0
     10634         1         0     10636         1         0     10639         1         0
     10642         1         0     10644         0         0     10645         1         0
     10649         1         0     10652         1         0     10655         1         0
     10657         0         0     10658         1         0     10662         1         0
     10665         1         0     10668         1         0     10670         1         0
     10674         1         0     10677         1         0     10680         1         0
     10683         1         0     10685         1         0     10689         1         0
     10693         1         0     10697         1         0     10700         1         0
     10703         1         0     10706         1         0     10708         1         0
     10710         1         0     10713         1         0     10716         1         0
     10718         0         0     10719         1         0     10723         1         0
     10726         1         0     10729         1         0     10731         0         0
     10732         1         0     10736         1         0     10739         1         0
     10742         1         0     10744         1         0     10748         1         0
     10751         1         0     10754         1         0     10757         1         0
     10759         1         0     10763         1         0     10767         2         0
     10774         2         0     10785         1         0     10793         1         0
     10802         1         0     10805         1         0     10808         1         0
     10811         1         0     10814         1         0     10817         1         0
     10820         1         0     10822         1         0     10824         1         0
     10827         1         0     10830         1         0     10833         1         0
     10836         1         0     10839         1         0     10842         1         0
     10845         1         0     10849         1         0     10852         1         0
     10855         1         0     10858         1         0     10861         1         0
     10864         1         0     10867         1         0     10870         1         0
     10873         1         0     10876         1         0     10879         1         0
     10882         1         0     10885         1         0     10888         1         0
     10891         1         0     10894         1         0     10898         2         0
     10914         2         0     10925         1         0     10929         1         0
     10933         1         0     10935         1         0     10937         1         0
     10940         1         0     10943         1         0     10946         1         0
     10949         1         0     10952         1         0     10955         1         0
     10958         1         0     10961         1         0     10964         1         0
     10967         1         0     10970         1         0     10973         1         0
     10977         1         0     10982         1         0     10985         1         0
     10988         1         0     10991         1         0     10994         1         0
     10997         1         0     11000         1         0     11002         1         0
     11004         1         0     11007         1         0     11010         1         0
     11013         1         0     11016         1         0     11019         1         0
     11022         1         0     11025         1         0     11029         2         0
     11045         2         0     11056         1         0     11060         1         0
     11064         1         0     11066         1         0     11068         1         0
     11071         1         0     11074         1         0     11077         1         0
     11080         1         0     11083         1         0     11086         1         0
     11089         1         0     11092         1         0     11095         1         0
     11098         1         0     11101         1         0     11104         1         0
     11108         1         0     11113         1         0     11116         1         0
     11119         1         0     11122         1         0     11125         1         0
     11128         1         0     11131         1         0     11133         1         0
     11135         1         0     11138         1         0     11141         1         0
     11144         1         0     11147         1         0     11150         1         0
     11153         1         0     11156         1         0     11160         2         0
     11176         2         0     11187         1         0     11191         1         0
     11195         1         0     11197         1         0     11199         1         0
     11202         1         0     11205         1         0     11208         1         0
     11211         1         0     11214         1         0     11217         1         0
     11220         1         0     11223         1         0     11226         1         0
     11229         1         0     11232         1         0     11235         1         0
     11239         1         0     11244         1         0     11247         1         0
     11250         1         0     11253         1         0     11256         1         0
     11259         1         0     11262         1         0     11264         1         0
     11266         1         0     11269         1         0     11272         1         0
     11275         1         0     11278         1         0     11281         1         0
     11284         1         0     11287         1         0     11291         1         0
     11295         1         0     11298         1         0     11301         1         0
     11304         1         0     11306         1         0     11308         1         0
     11311         1         0     11314         1         0     11316         0         0
     11317         1         0     11321         1         0     11324         1         0
     11327         1         0     11329         0         0     11330         1         0
     11334         1         0     11337         1         0     11340         1         0
     11342         1         0     11346         1         0     11349         1         0
     11352         1         0     11355         1         0     11357         1         0
     11361         1         0     11365         2         0     11381         2         0
     11392         1         0     11400         1         0     11409         1         0
     11412         1         0     11415         1         0     11418         1         0
     11421         1         0     11424         1         0     11427         1         0
     11429         1         0     11431         1         0     11434         1         0
     11436         1         0     11438         1         0     11441         1         0
     11444         1         0     11447         1         0     11450         1         0
     11454         1         0     11457         1         0     11460         1         0
     11463         1         0     11466         1         0     11469         1         0
     11472         1         0     11475         1         0     11478         1         0
     11481         1         0     11484         1         0     11487         1         0
     11490         1         0     11493         1         0     11496         1         0
     11499         1         0     11503         2         0     11519         2         0
     11530         1         0     11538         1         0     11547         1         0
     11550         1         0     11553         1         0     11556         1         0
     11559         1         0     11562         1         0     11565         1         0
     11567         1         0     11569         1         0     11572         1         0
     11574         1         0     11576         1         0     11579         1         0
     11582         1         0     11585         1         0     11588         1         0
     11592         1         0     11595         1         0     11598         1         0
     11601         1         0     11604         1         0     11607         1         0
     11610         1         0     11613         1         0     11616         1         0
     11619         1         0     11622         1         0     11625         1         0
     11628         1         0     11631         1         0     11634         1         0
     11637         1         0     11641         1         0     11645         1         0
     11648         1         0     11651         1         0     11654         1         0
     11656         1         0     11658         1         0     11661         1         0
     11664         1         0     11666         0         0     11667         1         0
     11671         1         0     11674         1         0     11677         1         0
     11679         0         0     11680         1         0     11684         1         0
     11687         1         0     11690         1         0     11692         1         0
     11696         1         0     11699         1         0     11702         1         0
     11705         1         0     11707         1         0     11711         1         0
     11715         2         0     11731         2         0     11742         1         0
     11750         1         0     11759         1         0     11762         1         0
     11765         1         0     11768         1         0     11771         1         0
     11774         1         0     11777         1         0     11779         1         0
     11781         1         0     11784         1         0     11787         1         0
     11790         1         0     11793         1         0     11796         1         0
     11799         1         0     11802         1         0     11806         1         0
     11809         1         0     11812         1         0     11815         1         0
     11818         1         0     11821         1         0     11824         1         0
     11827         1         0     11830         1         0     11833         1         0
     11836         1         0     11839         1         0     11842         1         0
     11845         1         0     11849         2         0     11856         2         0
     11867         1         0     11875         1         0     11884         1         0
     11887         1         0     11890         1         0     11892         1         0
     11894         1         0     11897         1         0     11899         1         0
     11901         1         0     11904         1         0     11906         1         0
     11908         1         0     11911         1         0     11913         1         0
     11915         1         0     11918         1         0     11921         1         0
     11924         1         0     11927         1         0     11931         1         0
     11934         1         0     11937         1         0     11940         1         0
     11943         1         0     11946         1         0     11949         1         0
     11952         1         0     11955         1         0     11958         1         0
     11961         1         0     11964         1         0     11967         1         0
     11970         1         0     11973         1         0     11976         1         0
     11980         2         0     11996         2         0     12007         1         0
     12011         1         0     12015         1         0     12017         1         0
     12019         1         0     12022         1         0     12025         1         0
     12028         1         0     12031         1         0     12034         1         0
     12037         1         0     12040         1         0     12043         1         0
     12046         1         0     12049         1         0     12052         1         0
     12055         1         0     12059         1         0     12064         1         0
     12067         1         0     12070         1         0     12073         1         0
     12076         1         0     12079         1         0     12082         1         0
     12084         1         0     12086         1         0     12089         1         0
     12092         1         0     12095         1         0     12098         1         0
     12101         1         0     12104         1         0     12107         1         0
     12111         1         0     12115         1         0     12118         1         0
     12121         1         0     12124         1         0     12126         1         0
     12128         1         0     12131         1         0     12134         1         0
     12136         0         0     12137         1         0     12141         1         0
     12144         1         0     12147         1         0     12149         0         0
     12150         1         0     12154         1         0     12157         1         0
     12160         1         0     12162         1         0     12166         1         0
     12169         1         0     12172         1         0     12175         1         0
     12177         1         0     12181         1         0     12185         1         0
     12189         1         0     12192         1         0     12195         1         0
     12198         1         0     12200         1         0     12202         1         0
     12205         1         0     12208         1         0     12210         0         0
     12211         1         0     12215         1         0     12218         1         0
     12221         1         0     12223         0         0     12224         1         0
     12228         1         0     12231         1         0     12234         1         0
     12236         1         0     12240         1         0     12243         1         0
     12246         1         0     12249         1         0     12251         1         0
     12255         1         0     12259         2         0     12265         2         0
     12268         2         0     12279         1         0     12287         1         0
     12296         1         0     12299         1         0     12302         1         0
     12304         1         0     12306         1         0     12309         1         0
     12311         1         0     12313         1         0     12316         1         0
     12318         1         0     12320         1         0     12323         1         0
     12325         1         0     12327         1         0     12330         1         0
     12333         1         0     12336         1         0     12339         1         0
     12343         1         0     12346         1         0     12349         1         0
     12352         1         0     12355         1         0     12358         1         0
     12361         1         0     12364         1         0     12367         1         0
     12370         1         0     12373         1         0     12376         1         0
     12379         1         0     12382         1         0     12385         1         0
     12388         1         0     12392         2         0     12408         2         0
     12419         1         0     12427         1         0     12436         1         0
     12439         1         0     12442         1         0     12445         1         0
     12448         1         0     12451         1         0     12454         1         0
     12456         1         0     12458         1         0     12461         1         0
     12464         1         0     12467         1         0     12470         1         0
     12473         1         0     12476         1         0     12479         1         0
     12483         1         0     12486         1         0     12489         1         0
     12492         1         0     12495         1         0     12498         1         0
     12501         1         0     12504         1         0     12507         1         0
     12510         1         0     12513         1         0     12516         1         0
     12519         1         0     12522         1         0     12526         1         0
     12530         1         0     12533         1         0     12536         1         0
     12539         1         0     12541         1         0     12543         1         0
     12546         1         0     12549         1         0     12551         0         0
     12552         1         0     12556         1         0     12559         1         0
     12562         1         0     12564         0         0     12565         1         0
     12569         1         0     12572         1         0     12575         1         0
     12577         1         0     12581         1         0     12584         1         0
     12587         1         0     12590         1         0     12592         1         0
     12596         1         0     12600         2         0     12607         2         0
     12618         1         0     12626         1         0     12635         1         0
     12638         1         0     12641         1         0     12643         1         0
     12645         1         0     12648         1         0     12650         1         0
     12652         1         0     12655         1         0     12657         1         0
     12659         1         0     12662         1         0     12664         1         0
     12666         1         0     12669         1         0     12672         1         0
     12675         1         0     12678         1         0     12682         1         0
     12685         1         0     12688         1         0     12691         1         0
     12694         1         0     12697         1         0     12700         1         0
     12703         1         0     12706         1         0     12709         1         0
     12712         1         0     12715         1         0     12718         1         0
     12721         1         0     12724         1         0     12727         1         0
     12731         2         0     12747         2         0     12758         1         0
     12766         1         0     12775         1         0     12778         1         0
     12781         1         0     12784         1         0     12787         1         0
     12790         1         0     12793         1         0     12795         1         0
     12797         1         0     12800         1         0     12802         1         0
     12804         1         0     12807         1         0     12810         1         0
     12813         1         0     12816         1         0     12820         1         0
     12823         1         0     12826         1         0     12829         1         0
     12832         1         0     12835         1         0     12838         1         0
     12841         1         0     12844         1         0     12847         1         0
     12850         1         0     12853         1         0     12856         1         0
     12859         1         0     12862         1         0     12865         1         0
     12869         1         0     12873         1         0     12876         1         0
     12879         1         0     12882         1         0     12884         1         0
     12886         1         0     12889         1         0     12892         1         0
     12894         0         0     12895         1         0     12899         1         0
     12902         1         0     12905         1         0     12907         0         0
     12908         1         0     12912         1         0     12915         1         0
     12918         1         0     12920         1         0     12924         1         0
     12927         1         0     12930         1         0     12933         1         0
     12935         1         0     12939         1         0     12943         2         0
     12950         2         0     12961         1         0     12969         1         0
     12978         1         0     12981         1         0     12984         1         0
     12986         1         0     12988         1         0     12991         1         0
     12993         1         0     12995         1         0     12998         1         0
     13000         1         0     13002         1         0     13005         1         0
     13007         1         0     13009         1         0     13012         1         0
     13015         1         0     13018         1         0     13021         1         0
     13025         1         0     13028         1         0     13031         1         0
     13034         1         0     13037         1         0     13040         1         0
     13043         1         0     13046         1         0     13049         1         0
     13052         1         0     13055         1         0     13058         1         0
     13061         1         0     13064         1         0     13067         1         0
     13070         1         0     13074         2         0     13090         2         0
     13101         1         0     13105         1         0     13109         1         0
     13111         1         0     13113         1         0     13116         1         0
     13119         1         0     13122         1         0     13125         1         0
     13128         1         0     13131         1         0     13134         1         0
     13137         1         0     13140         1         0     13143         1         0
     13146         1         0     13149         1         0     13153         1         0
     13158         1         0     13161         1         0     13164         1         0
     13167         1         0     13170         1         0     13173         1         0
     13176         1         0     13178         1         0     13180         1         0
     13183         1         0     13186         1         0     13189         1         0
     13192         1         0     13195         1         0     13198         1         0
     13201         1         0     13205         1         0     13209         1         0
     13212         1         0     13215         1         0     13218         1         0
     13220         1         0     13222         1         0     13225         1         0
     13228         1         0     13230         0         0     13231         1         0
     13235         1         0     13238         1         0     13241         1         0
     13243         0         0     13244         1         0     13248         1         0
     13251         1         0     13254         1         0     13256         1         0
     13260         1         0     13263         1         0     13266         1         0
     13269         1         0     13271         1         0     13275         1         0
     13279         2         0     13295         2         0     13306         1         0
     13310         1         0     13314         1         0     13316         1         0
     13318         1         0     13321         1         0     13324         1         0
     13327         1         0     13330         1         0     13333         1         0
     13336         1         0     13339         1         0     13342         1         0
     13345         1         0     13348         1         0     13351         1         0
     13354         1         0     13358         1         0     13363         1         0
     13366         1         0     13369         1         0     13372         1         0
     13375         1         0     13378         1         0     13381         1         0
     13383         1         0     13385         1         0     13388         1         0
     13391         1         0     13394         1         0     13397         1         0
     13400         1         0     13403         1         0     13406         1         0
     13410         1         0     13414         1         0     13417         1         0
     13420         1         0     13423         1         0     13425         1         0
     13427         1         0     13430         1         0     13433         1         0
     13435         0         0     13436         1         0     13440         1         0
     13443         1         0     13446         1         0     13448         0         0
     13449         1         0     13453         1         0     13456         1         0
     13459         1         0     13461         1         0     13465         1         0
     13468         1         0     13471         1         0     13474         1         0
     13476         1         0     13480         1         0     13484         1         0
     13488         1         0     13491         1         0     13494         1         0
     13497         1         0     13499         1         0     13501         1         0
     13504         1         0     13507         1         0     13509         0         0
     13510         1         0     13514         1         0     13517         1         0
     13520         1         0     13522         0         0     13523         1         0
     13527         1         0     13530         1         0     13533         1         0
     13535         1         0     13539         1         0     13542         1         0
     13545         1         0     13548         1         0     13550         1         0
     13554         1         0     13558         2         0     13574         2         0
     13585         1         0     13593         1         0     13602         1         0
     13605         1         0     13608         1         0     13610         1         0
     13612         1         0     13615         1         0     13617         1         0
     13619         1         0     13622         1         0     13624         1         0
     13626         1         0     13629         1         0     13631         1         0
     13633         1         0     13636         1         0     13639         2         0
     13642         1         0     13645         2         0     13649         1         0
     13652         1         0     13655         1         0     13658         1         0
     13661         1         0     13664         1         0     13667         1         0
     13670         1         0     13673         1         0     13676         1         0
     13679         1         0     13682         1         0     13685         1         0
     13688         1         0     13691         1         0     13694         1         0
     13698         1         0     13702         1         0     13705         1         0
     13708         1         0     13711         1         0     13713         1         0
     13715         1         0     13718         1         0     13721         1         0
     13723         0         0     13724         1         0     13728         1         0
     13731         1         0     13734         1         0     13736         0         0
     13737         1         0     13741         1         0     13744         1         0
     13747         1         0     13749         1         0     13753         1         0
     13756         1         0     13759         1         0     13762         1         0
     13764         1         0     13768         1         0     13772         2         0
     13788         2         0     13799         1         0     13807         1         0
     13816         1         0     13819         1         0     13822         1         0
     13824         1         0     13826         1         0     13829         1         0
     13831         1         0     13833         1         0     13836         1         0
     13838         1         0     13840         1         0     13843         1         0
     13845         1         0     13847         1         0     13850         1         0
     13853         2         0     13856         1         0     13859         2         0
     13863         1         0     13866         1         0     13869         1         0
     13872         1         0     13875         1         0     13878         1         0
     13881         1         0     13884         1         0     13887         1         0
     13890         1         0     13893         1         0     13896         1         0
     13899         1         0     13902         1         0     13905         1         0
     13908         1         0     13912         2         0     13919         2         0
     13930         1         0     13938         1         0     13947         1         0
     13950         1         0     13953         1         0     13956         1         0
     13959         1         0     13962         1         0     13965         1         0
     13967         1         0     13969         1         0     13972         1         0
     13975         1         0     13978         1         0     13981         1         0
     13984         1         0     13987         1         0     13990         1         0
     13994         1         0     13997         1         0     14000         1         0
     14003         1         0     14006         1         0     14009         1         0
     14012         1         0     14015         1         0     14018         1         0
     14021         1         0     14024         1         0     14027         1         0
     14030         1         0     14033         1         0     14036         1         0
     14039         1         0     14043         2         0     14050         2         0
     14061         1         0     14069         1         0     14078         1         0
     14081         1         0     14084         1         0     14087         1         0
     14090         1         0     14093         1         0     14096         1         0
     14098         1         0     14100         1         0     14103         1         0
     14106         1         0     14109         1         0     14112         1         0
     14115         1         0     14118         1         0     14121         1         0
     14125         1         0     14128         1         0     14131         1         0
     14134         1         0     14137         1         0     14140         1         0
     14143         1         0     14146         1         0     14149         1         0
     14152         1         0     14155         1         0     14158         1         0
     14161         1         0     14164         1         0     14167         1         0
     14170         1         0     14174         2         0     14180         2         0
     14183         2         0     14194         1         0     14202         1         0
     14211         1         0     14214         1         0     14217         1         0
     14219         1         0     14221         1         0     14224         1         0
     14226         1         0     14228         1         0     14231         1         0
     14233         1         0     14235         1         0     14238         1         0
     14240         1         0     14242         1         0     14245         1         0
     14248         1         0     14251         1         0     14254         1         0
     14258         1         0     14261         1         0     14264         1         0
     14267         1         0     14270         1         0     14273         1         0
     14276         1         0     14279         1         0     14282         1         0
     14285         1         0     14288         1         0     14291         1         0
     14294         1         0     14297         1         0     14300         1         0
     14303         1         0     14307         2         0     14323         2         0
     14334         1         0     14338         1         0     14342         1         0
     14344         1         0     14346         1         0     14349         1         0
     14352         1         0     14355         1         0     14358         1         0
     14361         1         0     14364         1         0     14367         1         0
     14370         1         0     14373         1         0     14376         1         0
     14379         1         0     14382         1         0     14386         1         0
     14391         1         0     14394         1         0     14397         1         0
     14400         1         0     14403         1         0     14406         1         0
     14409         1         0     14411         1         0     14413         1         0
     14416         1         0     14419         1         0     14422         1         0
     14425         1         0     14428         1         0     14431         1         0
     14434         1         0     14438         2         0     14454         2         0
     14465         1         0     14473         1         0     14482         1         0
     14485         1         0     14488         1         0     14490         1         0
     14492         1         0     14495         1         0     14497         1         0
     14499         1         0     14502         1         0     14504         1         0
     14506         1         0     14509         1         0     14511         1         0
     14513         1         0     14516         1         0     14519         2         0
     14522         1         0     14525         2         0     14529         1         0
     14532         1         0     14535         1         0     14538         1         0
     14541         1         0     14544         1         0     14547         1         0
     14550         1         0     14553         1         0     14556         1         0
     14559         1         0     14562         1         0     14565         1         0
     14568         1         0     14571         1         0     14574         1         0
     14578         1         0     14582         1         0     14585         1         0
     14588         1         0     14591         1         0     14593         1         0
     14595         1         0     14598         1         0     14601         1         0
     14603         0         0     14604         1         0     14608         1         0
     14611         1         0     14614         1         0     14616         0         0
     14617         1         0     14621         1         0     14624         1         0
     14627         1         0     14629         1         0     14633         1         0
     14636         1         0     14639         1         0     14642         1         0
     14644         1         0     14648         1         0     14652         2         0
     14658         2         0     14661         2         0     14672         1         0
     14680         1         0     14689         1         0     14692         1         0
     14695         1         0     14697         1         0     14699         1         0
     14702         1         0     14704         1         0     14706         1         0
     14709         1         0     14711         1         0     14713         1         0
     14716         1         0     14718         1         0     14720         1         0
     14723         1         0     14726         1         0     14729         1         0
     14732         1         0     14736         1         0     14739         1         0
     14742         1         0     14745         1         0     14748         1         0
     14751         1         0     14754         1         0     14757         1         0
     14760         1         0     14763         1         0     14766         1         0
     14769         1         0     14772         1         0     14775         1         0
     14778         1         0     14781         1         0     14785         1         0
     14789         1         0     14792         1         0     14795         1         0
     14798         1         0     14800         1         0     14802         1         0
     14805         1         0     14808         1         0     14810         0         0
     14811         1         0     14815         1         0     14818         1         0
     14821         1         0     14823         0         0     14824         1         0
     14828         1         0     14831         1         0     14834         1         0
     14836         1         0     14840         1         0     14843         1         0
     14846         1         0     14849         1         0     14851         1         0
     14855         1         0     14859         2         0     14866         2         0
     14877         1         0     14885         1         0     14894         1         0
     14897         1         0     14900         1         0     14903         1         0
     14906         1         0     14909         1         0     14912         1         0
     14914         1         0     14916         1         0     14919         1         0
     14922         1         0     14925         1         0     14928         1         0
     14931         1         0     14934         1         0     14937         1         0
     14941         1         0     14944         1         0     14947         1         0
     14950         1         0     14953         1         0     14956         1         0
     14959         1         0     14962         1         0     14965         1         0
     14968         1         0     14971         1         0     14974         1         0
     14977         1         0     14980         1         0     14983         1         0
     14986         1         0     14990         2         0     15006         2         0
     15017         1         0     15021         1         0     15025         1         0
     15027         1         0     15029         1         0     15032         1         0
     15035         1         0     15038         1         0     15041         1         0
     15044         1         0     15047         1         0     15050         1         0
     15053         1         0     15056         1         0     15059         1         0
     15062         1         0     15065         1         0     15069         1         0
     15074         1         0     15077         1         0     15080         1         0
     15083         1         0     15086         1         0     15089         1         0
     15092         1         0     15094         1         0     15096         1         0
     15099         1         0     15102         1         0     15105         1         0
     15108         1         0     15111         1         0     15114         1         0
     15117         1         0     15121         1         0     15125         1         0
     15128         1         0     15131         1         0     15134         1         0
     15136         1         0     15138         1         0     15141         1         0
     15144         1         0     15146         0         0     15147         1         0
     15151         1         0     15154         1         0     15157         1         0
     15159         0         0     15160         1         0     15164         1         0
     15167         1         0     15170         1         0     15172         1         0
     15176         1         0     15179         1         0     15182         1         0
     15185         1         0     15187         1         0     15191         1         0
     15195         2         0     15211         2         0     15222         1         0
     15230         1         0     15239         1         0     15242         1         0
     15245         1         0     15248         1         0     15251         1         0
     15254         1         0     15257         1         0     15259         1         0
     15261         1         0     15264         1         0     15267         1         0
     15270         1         0     15273         1         0     15276         1         0
     15279         1         0     15282         1         0     15286         1         0
     15289         1         0     15292         1         0     15295         1         0
     15298         1         0     15301         1         0     15304         1         0
     15307         1         0     15310         1         0     15313         1         0
     15316         1         0     15319         1         0     15322         1         0
     15325         1         0     15329         2         0     15345         2         0
     15356         1         0     15360         1         0     15364         1         0
     15366         1         0     15368         1         0     15371         1         0
     15374         1         0     15377         1         0     15380         1         0
     15383         1         0     15386         1         0     15389         1         0
     15392         1         0     15395         1         0     15398         1         0
     15401         1         0     15404         1         0     15408         1         0
     15413         1         0     15416         1         0     15419         1         0
     15422         1         0     15425         1         0     15428         1         0
     15431         1         0     15433         1         0     15435         1         0
     15438         1         0     15441         1         0     15444         1         0
     15447         1         0     15450         1         0     15453         1         0
     15456         1         0     15460         2         0     15467         2         0
     15478         1         0     15486         1         0     15495         1         0
     15498         1         0     15501         1         0     15504         1         0
     15507         1         0     15510         1         0     15513         1         0
     15515         1         0     15517         1         0     15520         1         0
     15523         1         0     15526         1         0     15529         1         0
     15532         1         0     15535         1         0     15538         1         0
     15542         1         0     15545         1         0     15548         1         0
     15551         1         0     15554         1         0     15557         1         0
     15560         1         0     15563         1         0     15566         1         0
     15569         1         0     15572         1         0     15575         1         0
     15578         1         0     15581         1         0     15584         1         0
     15587         1         0     15591         2         0     15607         2         0
     15618         1         0     15622         1         0     15626         1         0
     15628         1         0     15630         1         0     15633         1         0
     15636         1         0     15639         1         0     15642         1         0
     15645         1         0     15648         1         0     15651         1         0
     15654         1         0     15657         1         0     15660         1         0
     15663         1         0     15666         1         0     15670         1         0
     15675         1         0     15678         1         0     15681         1         0
     15684         1         0     15687         1         0     15690         1         0
     15693         1         0     15695         1         0     15697         1         0
     15700         1         0     15703         1         0     15706         1         0
     15709         1         0     15712         1         0     15715         1         0
     15718         1         0     15722         2         0     15728         2         0
     15731         2         0     15742         1         0     15750         1         0
     15759         1         0     15762         1         0     15765         1         0
     15767         1         0     15769         1         0     15772         1         0
     15774         1         0     15776         1         0     15779         1         0
     15781         1         0     15783         1         0     15786         1         0
     15788         1         0     15790         1         0     15793         1         0
     15796         1         0     15799         1         0     15802         1         0
     15806         1         0     15809         1         0     15812         1         0
     15815         1         0     15818         1         0     15821         1         0
     15824         1         0     15827         1         0     15830         1         0
     15833         1         0     15836         1         0     15839         1         0
     15842         1         0     15845         1         0     15848         1         0
     15851         1         0     15855         2         0     15862         2         0
     15873         1         0     15881         1         0     15890         1         0
     15893         1         0     15896         1         0     15898         1         0
     15900         1         0     15903         1         0     15905         1         0
     15907         1         0     15910         1         0     15912         1         0
     15914         1         0     15917         1         0     15919         1         0
     15921         1         0     15924         1         0     15927         1         0
     15930         1         0     15933         1         0     15937         1         0
     15940         1         0     15943         1         0     15946         1         0
     15949         1         0     15952         1         0     15955         1         0
     15958         1         0     15961         1         0     15964         1         0
     15967         1         0     15970         1         0     15973         1         0
     15976         1         0     15979         1         0     15982         1         0
     15986         1         0     15990         1         0     15993         1         0
     15996         1         0     15999         1         0     16001         1         0
     16003         1         0     16006         1         0     16009         1         0
     16011         0         0     16012         1         0     16016         1         0
     16019         1         0     16022         1         0     16024         0         0
     16025         1         0     16029         1         0     16032         1         0
     16035         1         0     16037         1         0     16041         1         0
     16044         1         0     16047         1         0     16050         1         0
     16052         1         0     16056         1         0     16060         2         0
     16076         2         0     16087         1         0     16091         1         0
     16095         1         0     16097         1         0     16099         1         0
     16102         1         0     16105         1         0     16108         1         0
     16111         1         0     16114         1         0     16117         1         0
     16120         1         0     16123         1         0     16126         1         0
     16129         1         0     16132         1         0     16135         1         0
     16139         1         0     16144         1         0     16147         1         0
     16150         1         0     16153         1         0     16156         1         0
     16159         1         0     16162         1         0     16164         1         0
     16166         1         0     16169         1         0     16172         1         0
     16175         1         0     16178         1         0     16181         1         0
     16184         1         0     16187         1         0     16191         2         0
     16198         2         0     16209         1         0     16217         1         0
     16226         1         0     16229         1         0     16232         1         0
     16234         1         0     16236         1         0     16239         1         0
     16241         1         0     16243         1         0     16246         1         0
     16248         1         0     16250         1         0     16253         1         0
     16255         1         0     16257         1         0     16260         1         0
     16263         1         0     16266         1         0     16269         1         0
     16273         1         0     16276         1         0     16279         1         0
     16282         1         0     16285         1         0     16288         1         0
     16291         1         0     16294         1         0     16297         1         0
     16300         1         0     16303         1         0     16306         1         0
     16309         1         0     16312         1         0     16315         1         0
     16318         1         0     16322         1         0     16326         1         0
     16329         1         0     16332         1         0     16335         1         0
     16337         1         0     16339         1         0     16342         1         0
     16345         1         0     16347         0         0     16348         1         0
     16352         1         0     16355         1         0     16358         1         0
     16360         0         0     16361         1         0     16365         1         0
     16368         1         0     16371         1         0     16373         1         0
     16377         1         0     16380         1         0     16383         1         0
     16386         1         0     16388         1         0     16392         1         0
     16396         2         0     16412         2         0     16423         1         0
     16431         1         0     16440         1         0     16443         1         0
     16446         1         0     16449         1         0     16452         1         0
     16455         1         0     16458         1         0     16460         1         0
     16462         1         0     16465         1         0     16468         1         0
     16471         1         0     16474         1         0     16477         1         0
     16480         1         0     16483         1         0     16487         1         0
     16490         1         0     16493         1         0     16496         1         0
     16499         1         0     16502         1         0     16505         1         0
     16508         1         0     16511         1         0     16514         1         0
     16517         1         0     16520         1         0     16523         1         0
     16526         1         0     16530         2         0     16546         2         0
     16557         1         0     16565         1         0     16574         1         0
     16577         1         0     16580         1         0     16582         1         0
     16584         1         0     16587         1         0     16589         1         0
     16591         1         0     16594         1         0     16596         1         0
     16598         1         0     16601         1         0     16603         1         0
     16605         1         0     16608         1         0     16611         2         0
     16614         1         0     16617         2         0     16621         1         0
     16624         1         0     16627         1         0     16630         1         0
     16633         1         0     16636         1         0     16639         1         0
     16642         1         0     16645         1         0     16648         1         0
     16651         1         0     16654         1         0     16657         1         0
     16660         1         0     16663         1         0     16666         1         0
     16670         2         0     16686         2         0     16697         1         0
     16705         1         0     16714         1         0     16717         1         0
     16720         1         0     16723         1         0     16726         1         0
     16729         1         0     16732         1         0     16734         1         0
     16736         1         0     16739         1         0     16741         1         0
     16743         1         0     16746         1         0     16749         1         0
     16752         1         0     16755         1         0     16759         1         0
     16762         1         0     16765         1         0     16768         1         0
     16771         1         0     16774         1         0     16777         1         0
     16780         1         0     16783         1         0     16786         1         0
     16789         1         0     16792         1         0     16795         1         0
     16798         1         0     16801         1         0     16804         1         0
     16808         1         0     16812         1         0     16815         1         0
     16818         1         0     16821         1         0     16823         1         0
     16825         1         0     16828         1         0     16831         1         0
     16833         0         0     16834         1         0     16838         1         0
     16841         1         0     16844         1         0     16846         0         0
     16847         1         0     16851         1         0     16854         1         0
     16857         1         0     16859         1         0     16863         1         0
     16866         1         0     16869         1         0     16872         1         0
     16874         1         0     16878         1         0     16882         2         0
     16889         2         0     16900         1         0     16908         1         0
     16917         1         0     16920         1         0     16923         1         0
     16926         1         0     16929         1         0     16932         1         0
     16935         1         0     16937         1         0     16939         1         0
     16942         1         0     16945         1         0     16948         1         0
     16951         1         0     16954         1         0     16957         1         0
     16960         1         0     16964         1         0     16967         1         0
     16970         1         0     16973         1         0     16976         1         0
     16979         1         0     16982         1         0     16985         1         0
     16988         1         0     16991         1         0     16994         1         0
     16997         1         0     17000         1         0     17003         1         0
     17006         1         0     17009         1         0     17013         2         0
     17020         2         0     17031         1         0     17039         1         0
     17048         1         0     17051         1         0     17054         1         0
     17056         1         0     17058         1         0     17061         1         0
     17063         1         0     17065         1         0     17068         1         0
     17070         1         0     17072         1         0     17075         1         0
     17077         1         0     17079         1         0     17082         1         0
     17085         1         0     17088         1         0     17091         1         0
     17095         1         0     17098         1         0     17101         1         0
     17104         1         0     17107         1         0     17110         1         0
     17113         1         0     17116         1         0     17119         1         0
     17122         1         0     17125         1         0     17128         1         0
     17131         1         0     17134         1         0     17137         1         0
     17140         1         0     17144         1         0     17148         1         0
     17151         1         0     17154         1         0     17157         1         0
     17159         1         0     17161         1         0     17164         1         0
     17167         1         0     17169         0         0     17170         1         0
     17174         1         0     17177         1         0     17180         1         0
     17182         0         0     17183         1         0     17187         1         0
     17190         1         0     17193         1         0     17195         1         0
     17199         1         0     17202         1         0     17205         1         0
     17208         1         0     17210         1         0     17214         1         0
     17218         2         0     17234         2         0     17245         1         0
     17253         1         0     17262         1         0     17265         1         0
     17268         1         0     17270         1         0     17272         1         0
     17275         1         0     17277         1         0     17279         1         0
     17282         1         0     17284         1         0     17286         1         0
     17289         1         0     17291         1         0     17293         1         0
     17296         1         0     17299         2         0     17302         1         0
     17305         2         0     17309         1         0     17312         1         0
     17315         1         0     17318         1         0     17321         1         0
     17324         1         0     17327         1         0     17330         1         0
     17333         1         0     17336         1         0     17339         1         0
     17342         1         0     17345         1         0     17348         1         0
     17351         1         0     17354         1         0     17358         1         0
     17362         1         0     17365         1         0     17368         1         0
     17371         1         0     17373         1         0     17375         1         0
     17378         1         0     17381         1         0     17383         0         0
     17384         1         0     17388         1         0     17391         1         0
     17394         1         0     17396         0         0     17397         1         0
     17401         1         0     17404         1         0     17407         1         0
     17409         1         0     17413         1         0     17416         1         0
     17419         1         0     17422         1         0     17424         1         0
     17428         1         0     17432         1         0     17436         1         0
     17439         1         0     17442         1         0     17445         1         0
     17447         1         0     17449         1         0     17452         1         0
     17455         1         0     17457         0         0     17458         1         0
     17462         1         0     17465         1         0     17468         1         0
     17470         0         0     17471         1         0     17475         1         0
     17478         1         0     17481         1         0     17483         1         0
     17487         1         0     17490         1         0     17493         1         0
     17496         1         0     17498         1         0     17502         1         0
     17506         2         0     17513         2         0     17524         1         0
     17532         1         0     17541         1         0     17544         1         0
     17547         1         0     17549         1         0     17551         1         0
     17554         1         0     17556         1         0     17558         1         0
     17561         1         0     17563         1         0     17565         1         0
     17568         1         0     17570         1         0     17572         1         0
     17575         1         0     17578         1         0     17581         1         0
     17584         1         0     17588         1         0     17591         1         0
     17594         1         0     17597         1         0     17600         1         0
     17603         1         0     17606         1         0     17609         1         0
     17612         1         0     17615         1         0     17618         1         0
     17621         1         0     17624         1         0     17627         1         0
     17630         1         0     17633         1         0     17637         1         0
     17641         1         0     17645         1         0     17649         1         0
     17653         1         0     17657         2         0     17667         1         0
     17675         1         0     17684         1         0     17687         1         0
     17690         1         0     17692         1         0     17694         1         0
     17697         1         0     17699         1         0     17701         1         0
     17704         1         0     17706         1         0     17708         1         0
     17711         1         0     17713         1         0     17715         1         0
     17718         1         0     17721         1         0     17724         1         0
     17727         1         0     17731         1         0     17734         1         0
     17737         1         0     17740         1         0     17743         1         0
     17746         1         0     17749         1         0     17752         1         0
     17755         1         0     17758         1         0     17761         1         0
     17764         1         0     17767         1         0     17770         1         0
     17773         1         0     17776         1         0     17780         1         0
     17784         1         0     17787         1         0     17790         1         0
     17793         1         0     17795         1         0     17797         1         0
     17800         1         0     17803         1         0     17805         0         0
     17806         1         0     17810         1         0     17813         1         0
     17816         1         0     17818         0         0     17819         1         0
     17823         1         0     17826         1         0     17829         1         0
     17831         1         0     17835         1         0     17838         1         0
     17841         1         0     17844         1         0     17846         1         0
     17850         1         0     17854         1         0     17858         1         0
     17862         1         0     17866         1         0     17870         1         0
     17874         2         0     17884         1         0     17892         1         0
     17901         1         0     17904         1         0     17907         1         0
     17909         1         0     17911         1         0     17914         1         0
     17916         1         0     17918         1         0     17921         1         0
     17923         1         0     17925         1         0     17928         1         0
     17930         1         0     17932         1         0     17935         1         0
     17938         1         0     17941         1         0     17944         1         0
     17948         1         0     17951         1         0     17954         1         0
     17957         1         0     17960         1         0     17963         1         0
     17966         1         0     17969         1         0     17972         1         0
     17975         1         0     17978         1         0     17981         1         0
     17984         1         0     17987         1         0     17990         1         0
     17993         1         0     17997         2         0     18004         2         0
     18015         1         0     18023         1         0     18032         1         0
     18035         1         0     18038         1         0     18040         1         0
     18042         1         0     18045         1         0     18047         1         0
     18049         1         0     18052         1         0     18054         1         0
     18056         1         0     18059         1         0     18061         1         0
     18063         1         0     18066         1         0     18069         1         0
     18072         1         0     18075         1         0     18079         1         0
     18082         1         0     18085         1         0     18088         1         0
     18091         1         0     18094         1         0     18097         1         0
     18100         1         0     18103         1         0     18106         1         0
     18109         1         0     18112         1         0     18115         1         0
     18118         1         0     18121         1         0     18124         1         0
     18128         2         0     18144         2         0     18155         1         0
     18159         1         0     18163         1         0     18165         1         0
     18167         1         0     18170         1         0     18173         1         0
     18176         1         0     18179         1         0     18182         1         0
     18185         1         0     18188         1         0     18191         1         0
     18194         1         0     18197         1         0     18200         1         0
     18203         1         0     18207         1         0     18212         1         0
     18215         1         0     18218         1         0     18221         1         0
     18224         1         0     18227         1         0     18230         1         0
     18232         1         0     18234         1         0     18237         1         0
     18240         1         0     18243         1         0     18246         1         0
     18249         1         0     18252         1         0     18255         1         0
     18259         2         0     18275         2         0     18286         1         0
     18290         1         0     18294         1         0     18296         1         0
     18298         1         0     18301         1         0     18304         1         0
     18307         1         0     18310         1         0     18313         1         0
     18316         1         0     18319         1         0     18322         1         0
     18325         1         0     18328         1         0     18331         1         0
     18334         1         0     18338         1         0     18343         1         0
     18346         1         0     18349         1         0     18352         1         0
     18355         1         0     18358         1         0     18361         1         0
     18363         1         0     18365         1         0     18368         1         0
     18371         1         0     18374         1         0     18377         1         0
     18380         1         0     18383         1         0     18386         1         0
     18390         2         0     18397         2         0     18408         1         0
     18416         1         0     18425         1         0     18428         1         0
     18431         1         0     18433         1         0     18435         1         0
     18438         1         0     18440         1         0     18442         1         0
     18445         1         0     18447         1         0     18449         1         0
     18452         1         0     18454         1         0     18456         1         0
     18459         1         0     18462         1         0     18465         1         0
     18468         1         0     18472         1         0     18475         1         0
     18478         1         0     18481         1         0     18484         1         0
     18487         1         0     18490         1         0     18493         1         0
     18496         1         0     18499         1         0     18502         1         0
     18505         1         0     18508         1         0     18511         1         0
     18514         1         0     18517         1         0     18521         2         0
     18537         2         0     18548         1         0     18556         1         0
     18565         1         0     18568         1         0     18571         1         0
     18574         1         0     18577         1         0     18580         1         0
     18583         1         0     18585         1         0     18587         1         0
     18590         1         0     18592         1         0     18594         1         0
     18597         1         0     18600         1         0     18603         1         0
     18606         1         0     18610         1         0     18613         1         0
     18616         1         0     18619         1         0     18622         1         0
     18625         1         0     18628         1         0     18631         1         0
     18634         1         0     18637         1         0     18640         1         0
     18643         1         0     18646         1         0     18649         1         0
     18652         1         0     18655         1         0     18659         2         0
     18675         2         0     18686         1         0     18690         1         0
     18694         1         0     18696         1         0     18698         1         0
     18701         1         0     18704         1         0     18707         1         0
     18710         1         0     18713         1         0     18716         1         0
     18719         1         0     18722         1         0     18725         1         0
     18728         1         0     18731         1         0     18734         1         0
     18738         1         0     18743         1         0     18746         1         0
     18749         1         0     18752         1         0     18755         1         0
     18758         1         0     18761         1         0     18763         1         0
     18765         1         0     18768         1         0     18771         1         0
     18774         1         0     18777         1         0     18780         1         0
     18783         1         0     18786         1         0     18790         2         0
     18806         2         0     18817         1         0     18821         1         0
     18825         1         0     18827         1         0     18829         1         0
     18832         1         0     18835         1         0     18838         1         0
     18841         1         0     18844         1         0     18847         1         0
     18850         1         0     18853         1         0     18856         1         0
     18859         1         0     18862         1         0     18865         1         0
     18869         1         0     18874         1         0     18877         1         0
     18880         1         0     18883         1         0     18886         1         0
     18889         1         0     18892         1         0     18894         1         0
     18896         1         0     18899         1         0     18902         1         0
     18905         1         0     18908         1         0     18911         1         0
     18914         1         0     18917         1         0     18921         2         0
     18928         2         0     18939         1         0     18947         1         0
     18956         1         0     18959         1         0     18962         1         0
     18964         1         0     18966         1         0     18969         1         0
     18971         1         0     18973         1         0     18976         1         0
     18978         1         0     18980         1         0     18983         1         0
     18985         1         0     18987         1         0     18990         1         0
     18993         1         0     18996         1         0     18999         1         0
     19003         1         0     19006         1         0     19009         1         0
     19012         1         0     19015         1         0     19018         1         0
     19021         1         0     19024         1         0     19027         1         0
     19030         1         0     19033         1         0     19036         1         0
     19039         1         0     19042         1         0     19045         1         0
     19048         1         0     19052         2         0     19059         2         0
     19070         1         0     19078         1         0     19087         1         0
     19090         1         0     19093         1         0     19095         1         0
     19097         1         0     19100         1         0     19102         1         0
     19104         1         0     19107         1         0     19109         1         0
     19111         1         0     19114         1         0     19116         1         0
     19118         1         0     19121         1         0     19124         1         0
     19127         1         0     19130         1         0     19134         1         0
     19137         1         0     19140         1         0     19143         1         0
     19146         1         0     19149         1         0     19152         1         0
     19155         1         0     19158         1         0     19161         1         0
     19164         1         0     19167         1         0     19170         1         0
     19173         1         0     19176         1         0     19179         1         0
     19183         2         0     19199         2         0     19210         1         0
     19218         1         0     19227         1         0     19230         1         0
     19233         1         0     19235         1         0     19237         1         0
     19240         1         0     19242         1         0     19244         1         0
     19247         1         0     19249         1         0     19251         1         0
     19254         1         0     19256         1         0     19258         1         0
     19261         1         0     19264         2         0     19267         1         0
     19270         2         0     19274         1         0     19277         1         0
     19280         1         0     19283         1         0     19286         1         0
     19289         1         0     19292         1         0     19295         1         0
     19298         1         0     19301         1         0     19304         1         0
     19307         1         0     19310         1         0     19313         1         0
     19316         1         0     19319         1         0     19323         2         0
     19339         2         0     19350         1         0     19358         1         0
     19367         1         0     19370         1         0     19373         1         0
     19375         1         0     19377         1         0     19380         1         0
     19382         1         0     19384         1         0     19387         1         0
     19389         1         0     19391         1         0     19394         1         0
     19396         1         0     19398         1         0     19401         1         0
     19404         2         0     19407         1         0     19410         2         0
     19414         1         0     19417         1         0     19420         1         0
     19423         1         0     19426         1         0     19429         1         0
     19432         1         0     19435         1         0     19438         1         0
     19441         1         0     19444         1         0     19447         1         0
     19450         1         0     19453         1         0     19456         1         0
     19459         1         0     19463         2         0     19469         2         0
     19472         2         0     19483         1         0     19491         1         0
     19500         1         0     19503         1         0     19506         1         0
     19508         1         0     19510         1         0     19513         1         0
     19515         1         0     19517         1         0     19520         1         0
     19522         1         0     19524         1         0     19527         1         0
     19529         1         0     19531         1         0     19534         1         0
     19537         1         0     19540         1         0     19543         1         0
     19547         1         0     19550         1         0     19553         1         0
     19556         1         0     19559         1         0     19562         1         0
     19565         1         0     19568         1         0     19571         1         0
     19574         1         0     19577         1         0     19580         1         0
     19583         1         0     19586         1         0     19589         1         0
     19592         1         0     19596         2         0     19612         2         0
     19623         1         0     19627         1         0     19631         1         0
     19633         1         0     19635         1         0     19638         1         0
     19641         1         0     19644         1         0     19647         1         0
     19650         1         0     19653         1         0     19656         1         0
     19659         1         0     19662         1         0     19665         1         0
     19668         1         0     19671         1         0     19675         1         0
     19680         1         0     19683         1         0     19686         1         0
     19689         1         0     19692         1         0     19695         1         0
     19698         1         0     19700         1         0     19702         1         0
     19705         1         0     19708         1         0     19711         1         0
     19714         1         0     19717         1         0     19720         1         0
     19723         1         0     19727         2         0     19743         2         0
     19754         1         0     19762         1         0     19771         1         0
     19774         1         0     19777         1         0     19780         1         0
     19783         1         0     19786         1         0     19789         1         0
     19791         1         0     19793         1         0     19796         1         0
     19798         1         0     19800         1         0     19803         1         0
     19806         1         0     19809         1         0     19812         1         0
     19816         1         0     19819         1         0     19822         1         0
     19825         1         0     19828         1         0     19831         1         0
     19834         1         0     19837         1         0     19840         1         0
     19843         1         0     19846         1         0     19849         1         0
     19852         1         0     19855         1         0     19858         1         0
     19861         1         0     19865         2         0     19872         2         0
     19883         1         0     19891         1         0     19900         1         0
     19903         1         0     19906         1         0     19909         1         0
     19912         1         0     19915         1         0     19918         1         0
     19920         1         0     19922         1         0     19925         1         0
     19928         1         0     19931         1         0     19934         1         0
     19937         1         0     19940         1         0     19943         1         0
     19947         1         0     19950         1         0     19953         1         0
     19956         1         0     19959         1         0     19962         1         0
     19965         1         0     19968         1         0     19971         1         0
     19974         1         0     19977         1         0     19980         1         0
     19983         1         0     19986         1         0     19989         1         0
     19992         1         0     19996         2         0     20003         2         0
     20014         1         0     20022         1         0     20031         1         0
     20034         1         0     20037         1         0     20039         1         0
     20041         1         0     20044         1         0     20046         1         0
     20048         1         0     20051         1         0     20053         1         0
     20055         1         0     20058         1         0     20060         1         0
     20062         1         0     20065         1         0     20068         1         0
     20071         1         0     20074         1         0     20078         1         0
     20081         1         0     20084         1         0     20087         1         0
     20090         1         0     20093         1         0     20096         1         0
     20099         1         0     20102         1         0     20105         1         0
     20108         1         0     20111         1         0     20114         1         0
     20117         1         0     20120         1         0     20123         1         0
     20127         2         0     20133         2         0     20136         2         0
     20147         1         0     20155         1         0     20164         1         0
     20167         1         0     20170         1         0     20172         1         0
     20174         1         0     20177         1         0     20179         1         0
     20181         1         0     20184         1         0     20186         1         0
     20188         1         0     20191         1         0     20193         1         0
     20195         1         0     20198         1         0     20201         1         0
     20204         1         0     20207         1         0     20211         1         0
     20214         1         0     20217         1         0     20220         1         0
     20223         1         0     20226         1         0     20229         1         0
     20232         1         0     20235         1         0     20238         1         0
     20241         1         0     20244         1         0     20247         1         0
     20250         1         0     20253         1         0     20256         1         0
     20260         2         0     20276         2         0     20287         1         0
     20291         1         0     20295         1         0     20297         1         0
     20299         1         0     20302         1         0     20305         1         0
     20308         1         0     20311         1         0     20314         1         0
     20317         1         0     20320         1         0     20323         1         0
     20326         1         0     20329         1         0     20332         1         0
     20335         1         0     20339         1         0     20344         1         0
     20347         1         0     20350         1         0     20353         1         0
     20356         1         0     20359         1         0     20362         1         0
     20364         1         0     20366         1         0     20369         1         0
     20372         1         0     20375         1         0     20378         1         0
     20381         1         0     20384         1         0     20387         1         0
     20391         2         0     20407         2         0     20418         1         0
     20426         1         0     20435         1         0     20438         1         0
     20441         1         0     20444         1         0     20447         1         0
     20450         1         0     20453         1         0     20455         1         0
     20457         1         0     20460         1         0     20462         1         0
     20464         1         0     20467         1         0     20470         1         0
     20473         1         0     20476         1         0     20480         1         0
     20483         1         0     20486         1         0     20489         1         0
     20492         1         0     20495         1         0     20498         1         0
     20501         1         0     20504         1         0     20507         1         0
     20510         1         0     20513         1         0     20516         1         0
     20519         1         0     20522         1         0     20525         1         0
     20529         1         0     20533         1         0     20536         1         0
     20539         1         0     20542         1         0     20544         1         0
     20546         1         0     20549         1         0     20552         1         0
     20554         0         0     20555         1         0     20559         1         0
     20562         1         0     20565         1         0     20567         0         0
     20568         1         0     20572         1         0     20575         1         0
     20578         1         0     20580         1         0     20584         1         0
     20587         1         0     20590         1         0     20593         1         0
     20595         1         0     20599         1         0     20603         1         0
     20607         1         0     20610         1         0     20613         1         0
     20616         1         0     20618         1         0     20620         1         0
     20623         1         0     20626         1         0     20628         0         0
     20629         1         0     20633         1         0     20636         1         0
     20639         1         0     20641         0         0     20642         1         0
     20646         1         0     20649         1         0     20652         1         0
     20654         1         0     20658         1         0     20661         1         0
     20664         1         0     20667         1         0     20669         1         0
     20673         1         0     20677         2         0     20693         2         0
     20704         1         0     20712         1         0     20721         1         0
     20724         1         0     20727         1         0     20729         1         0
     20731         1         0     20734         1         0     20736         1         0
     20738         1         0     20741         1         0     20743         1         0
     20745         1         0     20748         1         0     20750         1         0
     20752         1         0     20755         1         0     20758         2         0
     20761         1         0     20764         2         0     20768         1         0
     20771         1         0     20774         1         0     20777         1         0
     20780         1         0     20783         1         0     20786         1         0
     20789         1         0     20792         1         0     20795         1         0
     20798         1         0     20801         1         0     20804         1         0
     20807         1         0     20810         1         0     20813         1         0
     20817         2         0     20833         2         0     20844         1         0
     20848         1         0     20852         1         0     20854         1         0
     20856         1         0     20859         1         0     20862         1         0
     20865         1         0     20868         1         0     20871         1         0
     20874         1         0     20877         1         0     20880         1         0
     20883         1         0     20886         1         0     20889         1         0
     20892         1         0     20896         1         0     20901         1         0
     20904         1         0     20907         1         0     20910         1         0
     20913         1         0     20916         1         0     20919         1         0
     20921         1         0     20923         1         0     20926         1         0
     20929         1         0     20932         1         0     20935         1         0
     20938         1         0     20941         1         0     20944         1         0
     20948         2         0     20954         2         0     20957         2         0
     20968         1         0     20976         1         0     20985         1         0
     20988         1         0     20991         1         0     20993         1         0
     20995         1         0     20998         1         0     21000         1         0
     21002         1         0     21005         1         0     21007         1         0
     21009         1         0     21012         1         0     21014         1         0
     21016         1         0     21019         1         0     21022         1         0
     21025         1         0     21028         1         0     21032         1         0
     21035         1         0     21038         1         0     21041         1         0
     21044         1         0     21047         1         0     21050         1         0
     21053         1         0     21056         1         0     21059         1         0
     21062         1         0     21065         1         0     21068         1         0
     21071         1         0     21074         1         0     21077         1         0
     21081         1         0     21085         1         0     21088         1         0
     21091         1         0     21094         1         0     21096         1         0
     21098         1         0     21101         1         0     21104         1         0
     21106         0         0     21107         1         0     21111         1         0
     21114         1         0     21117         1         0     21119         0         0
     21120         1         0     21124         1         0     21127         1         0
     21130         1         0     21132         1         0     21136         1         0
     21139         1         0     21142         1         0     21145         1         0
     21147         1         0     21151         1         0     21155         1         0
     21159         1         0     21162         1         0     21165         1         0
     21168         1         0     21170         1         0     21172         1         0
     21175         1         0     21178         1         0     21180         0         0
     21181         1         0     21185         1         0     21188         1         0
     21191         1         0     21193         0         0     21194         1         0
     21198         1         0     21201         1         0     21204         1         0
     21206         1         0     21210         1         0     21213         1         0
     21216         1         0     21219         1         0     21221         1         0
     21225         1         0     21229         2         0     21245         2         0
     21256         1         0     21260         1         0     21264         1         0
     21266         1         0     21268         1         0     21271         1         0
     21274         1         0     21277         1         0     21280         1         0
     21283         1         0     21286         1         0     21289         1         0
     21292         1         0     21295         1         0     21298         1         0
     21301         1         0     21304         1         0     21308         1         0
     21313         1         0     21316         1         0     21319         1         0
     21322         1         0     21325         1         0     21328         1         0
     21331         1         0     21333         1         0     21335         1         0
     21338         1         0     21341         1         0     21344         1         0
     21347         1         0     21350         1         0     21353         1         0
     21356         1         0     21360         1         0     21364         1         0
     21367         1         0     21370         1         0     21373         1         0
     21375         1         0     21377         1         0     21380         1         0
     21383         1         0     21385         0         0     21386         1         0
     21390         1         0     21393         1         0     21396         1         0
     21398         0         0     21399         1         0     21403         1         0
     21406         1         0     21409         1         0     21411         1         0
     21415         1         0     21418         1         0     21421         1         0
     21424         1         0     21426         1         0     21430         1         0
     21434         2         0     21441         2         0     21452         1         0
     21460         1         0     21469         1         0     21472         1         0
     21475         1         0     21477         1         0     21479         1         0
     21482         1         0     21484         1         0     21486         1         0
     21489         1         0     21491         1         0     21493         1         0
     21496         1         0     21498         1         0     21500         1         0
     21503         1         0     21506         1         0     21509         1         0
     21512         1         0     21516         1         0     21519         1         0
     21522         1         0     21525         1         0     21528         1         0
     21531         1         0     21534         1         0     21537         1         0
     21540         1         0     21543         1         0     21546         1         0
     21549         1         0     21552         1         0     21555         1         0
     21558         1         0     21561         1         0     21565         2         0
     21572         2         0     21583         1         0     21591         1         0
     21600         1         0     21603         1         0     21606         1         0
     21608         1         0     21610         1         0     21613         1         0
     21615         1         0     21617         1         0     21620         1         0
     21622         1         0     21624         1         0     21627         1         0
     21629         1         0     21631         1         0     21634         1         0
     21637         1         0     21640         1         0     21643         1         0
     21647         1         0     21650         1         0     21653         1         0
     21656         1         0     21659         1         0     21662         1         0
     21665         1         0     21668         1         0     21671         1         0
     21674         1         0     21677         1         0     21680         1         0
     21683         1         0     21686         1         0     21689         1         0
     21692         1         0     21696         1         0     21700         1         0
     21703         1         0     21706         1         0     21709         1         0
     21711         1         0     21713         1         0     21716         1         0
     21719         1         0     21721         0         0     21722         1         0
     21726         1         0     21729         1         0     21732         1         0
     21734         0         0     21735         1         0     21739         1         0
     21742         1         0     21745         1         0     21747         1         0
     21751         1         0     21754         1         0     21757         1         0
     21760         1         0     21762         1         0     21766         1         0
     21770         2         0     21786         2         0     21797         1         0
     21801         1         0     21805         1         0     21807         1         0
     21809         1         0     21812         1         0     21815         1         0
     21818         1         0     21821         1         0     21824         1         0
     21827         1         0     21830         1         0     21833         1         0
     21836         1         0     21839         1         0     21842         1         0
     21845         1         0     21849         1         0     21854         1         0
     21857         1         0     21860         1         0     21863         1         0
     21866         1         0     21869         1         0     21872         1         0
     21874         1         0     21876         1         0     21879         1         0
     21882         1         0     21885         1         0     21888         1         0
     21891         1         0     21894         1         0     21897         1         0
     21901         1         0     21905         1         0     21908         1         0
     21911         1         0     21914         1         0     21916         1         0
     21918         1         0     21921         1         0     21924         1         0
     21926         0         0     21927         1         0     21931         1         0
     21934         1         0     21937         1         0     21939         0         0
     21940         1         0     21944         1         0     21947         1         0
     21950         1         0     21952         1         0     21956         1         0
     21959         1         0     21962         1         0     21965         1         0
     21967         1         0     21971         1         0     21975         2         0
     21981         2         0     21984         2         0     21995         1         0
     22003         1         0     22012         1         0     22015         1         0
     22018         1         0     22020         1         0     22022         1         0
     22025         1         0     22027         1         0     22029         1         0
     22032         1         0     22034         1         0     22036         1         0
     22039         1         0     22041         1         0     22043         1         0
     22046         1         0     22049         1         0     22052         1         0
     22055         1         0     22059         1         0     22062         1         0
     22065         1         0     22068         1         0     22071         1         0
     22074         1         0     22077         1         0     22080         1         0
     22083         1         0     22086         1         0     22089         1         0
     22092         1         0     22095         1         0     22098         1         0
     22101         1         0     22104         1         0     22108         1         0
     22112         1         0     22115         1         0     22118         1         0
     22121         1         0     22123         1         0     22125         1         0
     22128         1         0     22131         1         0     22133         0         0
     22134         1         0     22138         1         0     22141         1         0
     22144         1         0     22146         0         0     22147         1         0
     22151         1         0     22154         1         0     22157         1         0
     22159         1         0     22163         1         0     22166         1         0
     22169         1         0     22172         1         0     22174         1         0
     22178         1         0     22182         2         0     22198         2         0
     22209         1         0     22217         1         0     22226         1         0
     22229         1         0     22232         1         0     22235         1         0
     22238         1         0     22241         1         0     22244         1         0
     22246         1         0     22248         1         0     22251         1         0
     22253         1         0     22255         1         0     22258         1         0
     22261         1         0     22264         1         0     22267         1         0
     22271         1         0     22274         1         0     22277         1         0
     22280         1         0     22283         1         0     22286         1         0
     22289         1         0     22292         1         0     22295         1         0
     22298         1         0     22301         1         0     22304         1         0
     22307         1         0     22310         1         0     22313         1         0
     22316         1         0     22320         1         0     22323         1         0
     22326         1         0     22329         1         0     22332         1         0
     22335         1         0     22338         1         0     22341         1         0
     22344         1         0     22347         1         0     22350         1         0
     22353         1         0     22356         1         0     22359         1         0
     22362         1         0     22365         1         0     22368         1         0
     22371         1         0     22374         1         0     22377         1         0
     22380         1         0     22383         1         0     22386         1         0
     22389         1         0     22392         1         0     22395         1         0
     22398         1         0     22401         1         0     22404         1         0
     22407         1         0     22410         1         0     22413         1         0
     22416         1         0     22419         1         0     22422         1         0
     22425         1         0     22428         1         0     22431         1         0
     22434         1         0     22437         1         0     22440         1         0
     22443         1         0     22446         1         0     22449         1         0
     22452         1         0     22455         1         0     22458         1         0
     22461         1         0     22464         1         0     22467         1         0
     22470         1         0     22473         1         0     22476         1         0
     22479         1         0     22482         1         0     22485         1         0
     22488         1         0     22491         1         0     22494         1         0
     22497         1         0     22500         1         0     22503         1         0
     22506         1         0     22509         1         0     22512         1         0
     22515         1         0     22518         1         0     22521         1         0
     22524         1         0     22527         1         0     22530         1         0
     22533         1         0     22536         1         0     22539         1         0
     22542         1         0     22545         1         0     22548         1         0
     22551         1         0     22554         1         0     22557         1         0
     22560         1         0     22563         1         0     22566         1         0
     22569         1         0     22572         1         0     22575         1         0
     22578         1         0     22581         1         0     22584         1         0

         0         0 !NUMLP NUMLPH

         0 !NCRTERM: cross-terms


        89 !AUTOGEN
         0         0         0         0         0         0         0         0
         0         0         0         0         0         0         0         0
         0         0         0         0         0         0         0         0
         0         0         0         0         0         0         0         0
         0         0         0         0         0         0         0         0
         0         0         0         0         0         0         0         0
         0         0         0         0         0         0         0         0
         0         0         0         0         0         0         0         0
         0         0         0         0         0         0         0         0
         0         0         0         0         0         0         0         0
         0         0         0         0         0         0         0         0
         0         0         0         0         0         0         0         0
         0         0         0         0         0         0         0         0
         0         0         0         0         0         0         0         0
         0         0         0         0         0         0         0         0
         0         0         0         0         0         0         0         0
         0         0         0         0         0         0         0         0
         0         0         0         0         0         0         0         0
         0         0         0         0         0         0         0         0
         0         0         0         0         0         0         0         0
         0         0         0         0         0         0         0         0
         0         0         0         0         0         0         0         0
         0         0         0         0         0         0         0         0
         0         0         0         0         0         0         0         0
         0         0         0         0         0         0         0         0
         0         0         0         0         0         0         0         0
         0         0         0         0         0         0         0         0
         0         0         0         0         0         0         0         0
         0         0         0         0         0         0         0         0
         0         0         0         0         0         0         0         0
         0         0         0         0         0         0         0         0
         0         0         0         0         0         0         0         0
         0         0         0         0         0         0         0         0
         0         0         0         0         0         0         0         0
         0         0         0         0         0         0         0         0
         0         0         0         0         0         0         0         0
         0         0         0         0         0         0         0         0
         0         0         0         0         0         0         0         0
         0         0         0         0         0         0         0         0
         0         0         0         0         0         0         0         0
         0         0         0         0         0         0         0         0
         0         0         0         0         0         0         0         0
         0         0         0         0         0         0         0         0
         0         0         0         0         0         0         0         0
         0         0         0         0         0         0         0         0
         0         0         0         0         0         0         0         0
         0         0         0         0         0         0         0         0
         0         0         0         0         0         0         0         0
         0         0         0         0         0         0         0         0
         0         0         0         0         0         0         0         0
         0         0         0         0         0         0         0         0
         0         0         0         0         0         0         0         0
         0         0         0         0         0         0         0         0
         0         0         0         0         0         0         0         0
         0         0         0         0         0         0         0         0
         0         0         0         0         0         0         0         0
         0         0         0         0         0         0         0         0
         0         0         0         0         0         0         0         0
         0         0         0         0         0         0         0         0
         0         0         0         0         0         0         0         0
         0         0         0         0         0         0         0         0
         0         0         0         0         0         0         0         0
         0         0         0         0         0         0         0         0
         0         0         0         0         0         0         0         0
         0         0         0         0         0         0         0         0
         0         0         0         0         0         0         0         0
         0         0         0         0         0         0         0         0
         0         0         0         0         0         0         0         0
         0         0         0         0         0         0         0         0
         0         0         0         0         0         0         0         0
         0         0         0         0         0         0         0         0
         0         0         0         0         0         0         0         0
         0         0         0         0         0         0         0         0
         0         0         0         0         0         0         0         0
         0         0         0         0         0         0         0         0
         0         0         0         0         0         0         0         0
         0         0         0         0         0         0         0         0
         0         0         0         0         0         0         0         0
         0         0         0         0         0         0         0         0
         0         0         0         0         0         0         0         0
         0         0         0         0         0         0         0         0
         0         0         0         0         0         0         0         0
         0         0         0         0         0         0         0         0
         0         0         0         0         0         0         0         0
         0         0         0         0         0         0         0         0
         0         0         0         0         0         0         0         0
         0         0         0         0         0         0         0         0
         0         0         0         0         0         0         0         0
         0         0         0         0         0         0         0         0
         0         0         0         0         0         0         0         0
         0         0         0         0         0         0         0         0
         0         0         0         0         0         0         0         0
         0         0         0         0         0         0         0         0
         0         0         0         0         0         0         0         0
         0         0         0         0         0         0         0         0
         0         0         0         0         0         0         0         0
         0         0         0         0         0         0         0         0
         0         0         0         0         0         0         0         0
         0         0         0         0         0         0         0         0
         0         0         0         0         0         0         0         0
         0         0         0         0         0         0         0         0
         0         0         0         0         0         0         0         0
         0         0         0         0         0         0         0         0
         0         0         0         0         0         0         0         0
         0         0         0         0         0         0         0         0
         0         0         0         0         0         0         0         0
         0         0         0         0         0         0         0         0
         0         0         0         0         0         0         0         0
         0         0         0         0         0         0         0         0
         0         0         0         0         0         0         0         0
         0         0         0         0         0         0         0         0
         0         0         0         0         0         0         0         0
         0         0         0         0         0         0         0         0
         0         0         0         0         0         0         0         0
         0         0         0         0         0         0         0         0
         0         0         0         0         0         0         0         0
         0         0         0         0         0         0         0         0
         0         0         0         0         0         0         0         0
         0         0         0         0         0         0         0         0
         0         0         0         0         0         0         0         0
         0         0         0         0         0         0         0         0
         0         0         0         0         0         0         0         0
         0         0         0         0         0         0         0         0
         0         0         0         0         0         0         0         0
         0         0         0         0         0         0         0         0
         0         0         0         0         0         0         0         0
         0         0         0         0         0         0         0         0
         0         0         0         0         0         0         0         0
         0         0         0         0         0         0         0         0
         0         0         0         0         0         0         0         0
         0         0         0         0         0         0         0         0
         0         0         0         0         0         0         0         0
         0         0         0         0         0         0         0         0
         0         0         0         0         0         0         0         0
         0         0         0         0         0         0         0         0
         0         0         0         0         0         0         0         0
         0         0         0         0         0         0         0         0
         0         0         0         0         0         0         0         0
         0         0         0         0         0         0         0         0
         0         0         0         0         0         0         0         0
         0         0         0         0         0         0         0         0
         0         0         0         0         0         0         0         0
         0         0         0         0         0         0         0         0
         0         0         0         0         0         0         0         0
         0         0         0         0         0         0         0         0
         0         0         0         0         0         0         0         0
         0         0         0         0         0         0         0         0
         0         0         0         0         0         0         0         0
         0         0         0         0         0         0         0         0
         0         0         0         0         0         0         0         0
         0         0         0         0         0         0         0         0
         0         0         0         0         0         0         0         0
         0         0         0         0         0         0         0         0
         0         0         0         0         0         0         0         0
         0         0         0         0         0         0         0         0
         0         0         0         0         0         0         0         0
         0         0         0         0         0         0         0         0
         0         0         0         0         0         0         0         0
         0         0         0         0         0         0         0         0
         0         0         0         0         0         0         0         0
         0         0         0         0         0         0         0         0
         0         0         0         0         0         0         0         0
         0         0         0         0         0         0         0         0
         0         0         0         0         0         0         0         0
         0         0         0         0         0         0         0         0
         0         0         0         0         0         0         0         0
         0         0         0         0         0         0         0         0
         0         0         0         0         0         0         0         0
         0         0         0         0         0         0         0         0
         0         0         0         0         0         0         0         0
         0         0         0         0         0         0         0         0
         0         0         0         0         0         0         0         0
         0         0         0         0         0         0         0         0
         0         0         0         0         0         0         0         0
         0         0         0         0         0         0         0         0
         0         0         0         0         0         0         0         0
         0         0         0         0         0         0         0         0
         0         0         0         0         0         0         0         0
         0         0         0         0         0         0         0         0
         0         0         0         0         0         0         0         0
         0         0         0         0         0         0         0         0
         0         0         0         0         0         0         0         0
         0         0         0         0         0         0         0         0
         0         0         0         0         0         0         0         0
         0         0         0         0         0         0         0         0
         0         0         0         0         0         0         0         0
         0         0         0         0         0         0         0         0
         0         0         0         0         0         0         0         0
         0         0         0         0         0         0         0         0
         0         0         0         0         0         0         0         0
         0         0         0         0         0         0         0         0
         0         0         0         0         0         0         0         0
         0         0         0         0         0         0         0         0
         0         0         0         0         0         0         0         0
         0         0         0         0         0         0         0         0
         0         0         0         0         0         0         0         0
         0         0         0         0         0         0         0         0
         0         0         0         0         0         0         0         0
         0         0         0         0         0         0         0         0
         0         0         0         0         0         0         0         0
         0         0         0         0         0         0         0         0
         0         0         0         0         0         0         0         0
         0         0         0         0         0         0         0         0
         0         0         0         0         0         0         0         0
         0         0         0         0         0         0         0         0
         0         0         0         0         0         0         0         0
         0         0         0         0         0         0         0         0
         0         0         0         0         0         0         0         0
         0         0         0         0         0         0         0         0
         0         0         0         0         0         0         0         0
         0         0         0         0         0         0         0         0
         0         0         0         0         0         0         0         0
         0         0         0         0         0         0         0         0
         0         0         0         0         0         0         0         0
         0         0         0         0         0         0         0         0
         0         0         0         0         0         0         0         0
         0         0         0         0         0         0         0         0
         0         0         0         0         0         0         0         0
         0         0         0         0         0         0         0         0
         0         0         0         0         0         0         0         0
         0         0         0         0         0         0         0         0
         0         0         0         0         0         0         0         0
         0         0         0         0         0         0         0         0
         0         0         0         0         0         0         0         0
         0         0         0         0         0         0         0         0
         0         0         0         0         0         0         0         0
         0         0         0         0         0         0         0         0
         0         0         0         0         0         0         0         0
         0         0         0         0         0         0         0         0
         0         0         0         0         0         0         0         0
         0         0         0         0         0         0         0         0
         0         0         0         0         0         0         0         0
         0         0         0         0         0         0         0         0
         0         0         0         0         0         0         0         0
         0         0         0         0         0         0         0         0
         0         0         0         0         0         0         0         0
         0         0         0         0         0         0         0         0
         0         0         0         0         0         0         0         0
         0         0         0         0         0         0         0         0
         0         0         0         0         0         0         0         0
         0         0         0         0         0         0         0         0
         0         0         0         0         0         0         0         0
         0         0         0         0         0         0         0         0
         0         0         0         0         0         0         0         0
         0         0         0         0         0         0         0         0
         0         0         0         0         0         0         0         0
         0         0         0         0         0         0         0         0
         0         0         0         0         0         0         0         0
         0         0         0         0         0         0         0         0
         0         0         0         0         0         0         0         0
         0         0         0         0         0         0         0         0
         0         0         0         0         0         0         0         0
         0         0         0         0         0         0         0         0
         0         0         0         0         0         0         0         0
         0         0         0         0         0         0         0         0
         0         0         0         0         0         0         0         0
         0         0         0         0         0         0         0         0
         0         0         0         0         0         0         0         0
         0         0         0         0         0         0         0         0
         0         0         0         0         0         0         0         0
         0         0         0         0         0         0         0         0
         0         0         0         0         0         0         0         0
         0         0         0         0         0         0         0         0
         0         0         0         0         0         0         0         0
         0         0         0         0         0         0         0         0
         0         0         0         0         0         0         0         0
         0         0         0         0         0         0         0         0
         0         0         0         0         0         0         0         0
         0         0         0         0         0         0         0         0
         0         0         0         0         0         0         0         0
         0         0         0         0         0         0         0         0
         0         0         0         0         0         0         0         0
         0         0         0         0         0         0         0         0
         0         0         0         0         0         0         0         0
         0         0         0         0         0         0         0         0
         0         0         0         0         0         0         0         0
         0         0         0         0         0         0         0         0
         0         0         0         0         0         0         0         0
         0         0         0         0         0         0         0         0
         0         0         0         0         0         0         0         0
         0         0         0         0         0         0         0         0
         0         0         0         0         0         0         0         0
         0         0         0         0         0         0         0         0
         0         0         0         0         0         0         0         0
         0         0         0         0         0         0         0         0
         0         0         0         0         0         0         0         0
         0         0         0         0         0         0         0         0
         0         0         0         0         0         0         0         0
         0         0         0         0         0         0         0         0
         0         0         0         0         0         0         0         0
         0         0         0         0         0         0         0         0
         0         0         0         0         0         0         0         0
         0         0         0         0         0         0         0         0
         0         0         0         0         0         0         0         0
         0         0         0         0         0         0         0         0
         0         0         0         0         0         0         0         0
         0         0         0         0         0         0         0         0
         0         0         0         0         0         0         0         0
         0         0         0         0         0         0         0         0
         0         0         0         0         0         0         0         0
         0         0         0         0         0         0         0         0
         0         0         0         0         0         0         0         0
         0         0         0         0         0         0         0         0
         0         0         0         0         0         0         0         0
         0         0         0         0         0         0         0         0
         0         0         0         0         0         0         0         0
         0         0         0         0         0         0         0         0
         0         0         0         0         0         0         0         0
         0         0         0         0         0         0         0         0
         0         0         0         0         0         0         0         0
         0         0         0         0         0         0         0         0
         0         0         0         0         0         0         0         0
         0         0         0         0         0         0         0         0
         0         0         0         0         0         0         0         0
         0         0         0         0         0         0         0         0
         0         0         0         0         0         0         0         0
         0         0         0         0         0         0         0         0
         0         0         0         0         0         0         0         0
         0         0         0         0         0         0         0         0
         0         0         0         0         0         0         0         0
         0         0         0         0         0         0         0         0
         0         0         0         0         0         0         0         0
         0         0         0         0         0         0         0         0
         0         0         0         0         0         0         0         0
         0         0         0         0         0         0         0         0
         0         0         0         0         0         0         0         0
         0         0         0         0         0         0         0         0
         0         0         0         0         0         0         0         0
         0         0         0         0         0         0         0         0
         0         0         0         0         0         0         0         0
         0         0         0         0         0         0         0         0
         0         0         0         0         0         0         0         0
         0         0         0         0         0         0         0         0
         0         0         0         0         0         0         0         0
         0         0         0         0         0         0         0         0
         0         0         0         0         0         0         0         0
         0         0         0         0         0         0         0         0
         0         0         0         0         0         0         0         0
         0         0         0         0         0         0         0         0
         0         0         0         0         0         0         0         0
         0         0         0         0         0         0         0         0
         0         0         0         0         0         0         0         0
         0         0         0         0         0         0         0         0
         0         0         0         0         0         0         0         0
         0         0         0         0         0         0         0         0
         0         0         0         0         0         0         0         0
         0         0         0         0         0         0         0         0
         0         0         0         0         0         0         0         0
         0         0         0         0         0         0         0         0
         0         0         0         0         0         0         0         0
         0         0         0         0         0         0         0         0
         0         0         0         0         0         0         0         0
         0         0         0         0         0         0         0         0
         0         0         0         0         0         0         0         0
         0         0         0         0         0         0         0         0
         0         0         0         0         0         0         0         0
         0         0         0         0         0         0         0         0
         0         0         0         0         0         0         0         0
         0         0         0         0         0         0         0         0
         0         0         0         0         0         0         0         0
         0         0         0         0         0         0         0         0
         0         0         0         0         0         0         0         0
         0         0         0         0         0         0         0         0
         0         0         0         0         0         0         0         0
         0         0         0         0         0         0         0         0
         0         0         0         0         0         0         0         0
         0         0         0         0         0         0         0         0
         0         0         0         0         0         0         0         0
         0         0         0         0         0         0         0         0
         0         0         0         0         0         0         0         0
         0         0         0         0         0         0         0         0
         0         0         0         0         0         0         0         0
         0         0         0         0         0         0         0         0
         0         0         0         0         0         0         0         0
         0         0         0         0         0         0         0         0
         0         0         0         0         0         0         0         0
         0         0         0         0         0         0         0         0
         0         0         0         0         0         0         0         0
         0         0         0         0         0         0         0         0
         0         0         0         0         0         0         0         0
         0         0         0         0         0         0         0         0
         0         0         0         0         0         0         0         0
         0         0         0         0         0         0         0         0
         0         0         0         0         0         0         0         0
         0         0         0         0         0         0         0         0
         0         0         0         0         0         0         0         0
         0         0         0         0         0         0         0         0
         0         0         0         0         0         0         0         0
         0         0         0         0         0         0         0         0
         0         0         0         0         0         0         0         0
         0         0         0         0         0         0         0         0
         0         0         0         0         0         0         0         0
         0         0         0         0         0         0         0         0
         0         0         0         0         0         0         0         0
         0         0         0         0         0         0         0         0
         0         0         0         0         0         0         0         0
         0         0         0         0         0         0         0         0
         0         0         0         0         0         0         0         0
         0         0         0         0         0         0         0         0
         0         0         0         0         0         0         0         0
         0         0         0         0         0         0         0         0
         0         0         0         0         0         0         0         0
         0         0         0         0         0         0         0         0
         0         0         0         0         0         0         0         0
         0         0         0         0         0         0         0         0
         0         0         0         0         0         0         0         0
         0         0         0         0         0         0         0         0
         0         0         0         0         0         0         0         0
         0         0         0         0         0         0         0         0
         0         0         0         0         0         0         0         0
         0         0         0         0         0         0         0         0
         0         0         0         0         0         0         0         0
         0         0         0         0         0         0         0         0
         0         0         0         0         0         0         0         0
         0         0         0         0         0         0         0         0
         0         0         0         0         0         0         0         0
         0         0         0         0         0         0         0         0
         0         0         0         0         0         0         0         0
         0         0         0         0         0         0         0         0
         0         0         0         0         0         0         0         0
         0         0         0         0         0         0         0         0
         0         0         0         0         0         0         0         0
         0         0         0         0         0         0         0         0
         0         0         0         0         0         0         0         0
         0         0         0         0         0         0         0         0
         0         0         0         0         0         0         0         0
         0         0         0         0         0         0         0         0
         0         0         0         0         0         0         0         0
         0         0         0         0         0         0         0         0
         0         0         0         0         0         0         0         0
         0         0         0         0         0         0         0         0
         0         0         0         0         0         0         0         0
         0         0         0         0         0         0         0         0
         0         0         0         0         0         0         0         0
         0         0         0         0         0         0         0         0
         0         0         0         0         0         0         0         0
         0         0         0         0         0         0         0         0
         0         0         0         0         0         0         0         0
         0         0         0         0         0         0         0         0
         0         0         0         0         0         0         0         0
         0         0         0         0         0         0         0         0
         0         0         0         0         0         0         0         0
         0         0         0         0         0         0         0         0
         0         0         0         0         0         0         0         0
         0         0         0         0         0         0         0         0
         0         0         0         0         0         0         0         0
         0         0         0         0         0         0         0         0
         0         0         0         0         0         0         0         0
         0         0         0         0         0         0         0         0
         0         0         0         0         0         0         0         0
         0         0         0         0         0         0         0         0
         0         0         0         0         0         0         0         0
         0         0         0         0         0         0         0         0
         0         0         0         0         0         0         0         0
         0         0         0         0         0         0         0         0
         0         0         0         0         0         0         0         0
         0         0         0         0         0         0         0         0
         0         0         0         0         0         0         0         0
         0         0         0         0         0         0         0         0
         0         0         0         0         0         0         0         0
         0         0         0         0         0         0         0         0
         0         0         0         0         0         0         0         0
         0         0         0         0         0         0         0         0
         0         0         0         0         0         0         0         0
         0         0         0         0         0         0         0         0
         0         0         0         0         0         0         0         0
         0         0         0         0         0         0         0         0
         0         0         0         0         0         0         0         0
         0         0         0         0         0         0         0         0
         0         0         0         0         0         0         0         0
         0         0         0         0         0         0         0         0
         0         0         0         0         0         0         0         0
         0         0         0         0         0         0         0         0
         0         0         0         0         0         0         0         0
         0         0         0         0         0         0         0         0
         0         0         0         0         0         0         0         0
         0         0         0         0         0         0         0         0
         0         0         0         0         0         0         0         0
         0         0         0         0         0         0         0         0
         0         0         0         0         0         0         0         0
         0         0         0         0         0         0         0         0
         0         0         0         0         0         0         0         0
         0         0         0         0         0         0         0         0
         0         0         0         0         0         0         0         0
         0         0         0         0         0         0         0         0
         0         0         0         0         0         0         0         0
         0         0         0         0         0         0         0         0
         0         0         0         0         0         0         0         0
         0         0         0         0         0         0         0         0
         0         0         0         0         0         0         0         0
         0         0         0         0         0         0         0         0
         0         0         0         0         0         0         0         0
         0         0         0         0         0         0         0         0
         0         0         0         0         0         0         0         0
         0         0         0         0         0         0         0         0
         0         0         0         0         0         0         0         0
         0         0         0         0         0         0         0         0
         0         0         0         0         0         0         0         0
         0         0         0         0         0         0         0         0
         0         0         0         0         0         0         0         0
         0         0         0         0         0         0         0         0
         0         0         0         0         0         0         0         0
         0         0         0         0         0         0         0         0
         0         0         0         0         0         0         0         0
         0         0         0         0         0         0         0         0
         0         0         0         0         0         0         0         0
         0         0         0         0         0         0         0         0
         0         0         0         0         0         0         0         0
         0         0         0         0         0         0         0         0
         0         0         0         0         0         0         0         0
         0         0         0         0         0         0         0         0
         0         0         0         0         0         0         0         0
         0         0         0         0         0         0         0         0
         0         0         0         0         0         0         0         0
         0         0         0         0         0         0         0         0
         0         0         0         0         0         0         0         0
         0         0         0         0         0         0         0         0
         0         0         0         0         0         0         0         0
         0         0         0         0         0         0         0         0
         0         0         0         0         0         0         0         0
         0         0         0         0         0         0         0         0
         0         0         0         0         0         0         0         0
         0         0         0         0         0         0         0         0
         0         0         0         0         0         0         0         0
         0         0         0         0         0         0         0         0
         0         0         0         0         0         0         0         0
         0         0         0         0         0         0         0         0
         0         0         0         0         0         0         0         0
         0         0         0         0         0         0         0         0
         0         0         0         0         0         0         0         0
         0         0         0         0         0         0         0         0
         0         0         0         0         0         0         0         0
         0         0         0         0         0         0         0         0
         0         0         0         0         0         0         0         0
         0         0         0         0         0         0         0         0
         0         0         0         0         0         0         0         0
         0         0         0         0         0         0         0         0
         0         0         0         0         0         0         0         0
         0         0         0         0         0         0         0         0
         0         0         0         0         0         0         0         0
         0         0         0         0         0         0         0         0
         0         0         0         0         0         0         0         0
         0         0         0         0         0         0         0         0
         0         0         0         0         0         0         0         0
         0         0         0         0         0         0         0         0
         0         0         0         0         0         0         0         0
         0         0         0         0         0         0         0         0
         0         0         0         0         0         0         0         0
         0         0         0         0         0         0         0         0
         0         0         0         0         0         0         0         0
         0         0         0         0         0         0         0         0
         0         0         0         0         0         0         0         0
         0         0         0         0         0         0         0         0
         0         0         0         0         0         0         0         0
         0         0         0         0         0         0         0         0
         0         0         0         0         0         0         0         0
         0         0         0         0         0         0         0         0
         0         0         0         0         0         0         0         0
         0         0         0         0         0         0         0         0
         0         0         0         0         0         0         0         0
         0         0         0         0         0         0         0         0
         0         0         0         0         0         0         0         0
         0         0         0         0         0         0         0         0
         0         0         0         0         0         0         0         0
         0         0         0         0         0         0         0         0
         0         0         0         0         0         0         0         0
         0         0         0         0         0         0         0         0
         0         0         0         0         0         0         0         0
         0         0         0         0         0         0         0         0
         0         0         0         0         0         0         0         0
         0         0         0         0         0         0         0         0
         0         0         0         0         0         0         0         0
         0         0         0         0         0         0         0         0
         0         0         0         0         0         0         0         0
         0         0         0         0         0         0         0         0
         0         0         0         0         0         0         0         0
         0         0         0         0         0         0         0         0
         0         0         0         0         0         0         0         0
         0         0         0         0         0         0         0         0
         0         0         0         0         0         0         0         0
         0         0         0         0         0         0         0         0
         0         0         0         0         0         0         0         0
         0         0         0         0         0         0         0         0
         0         0         0         0         0         0         0         0
         0         0         0         0         0         0         0         0
         0         0         0         0         0         0         0         0
         0         0         0         0         0         0         0         0
         0         0         0         0         0         0         0         0
         0         0         0         0         0         0         0         0
         0         0         0         0         0         0         0         0
         0         0         0         0         0         0         0         0
         0         0         0         0         0         0         0         0
         0         0         0         0         0         0         0         0
         0         0         0         0         0         0         0         0
         0         0         0         0         0         0         0         0
         0         0         0         0         0         0         0         0
         0         0         0         0         0         0         0         0
         0         0         0         0         0         0         0         0
         0         0         0         0         0         0         0         0
         0         0         0         0         0         0         0         0
         0         0         0         0         0         0         0         0
         0         0         0         0         0         0         0         0
         0         0         0         0         0         0         0         0
         0         0         0         0         0         0         0         0
         0         0         0         0         0         0         0         0
         0         0         0         0         0         0         0         0
         0         0         0         0         0         0         0         0
         0         0         0         0         0         0         0         0
         0         0         0         0         0         0         0         0
         0         0         0         0         0         0         0         0
         0         0         0         0         0         0         0         0
         0         0         0         0         0         0         0         0
         0         0         0         0         0         0         0         0
         0         0         0         0         0         0         0         0
         0         0         0         0         0         0         0         0
         0         0         0         0         0         0         0         0
         0         0         0         0         0         0         0         0
         0         0         0         0         0         0         0         0
         0         0         0         0         0         0         0         0
         0         0         0         0         0         0         0         0
         0         0         0         0         0         0         0         0
         0         0         0         0         0         0         0         0
         0         0         0         0         0         0         0         0
         0         0         0         0         0         0         0         0
         0         0         0         0         0         0         0         0
         0         0         0         0         0         0         0         0
         0         0         0         0         0         0         0         0
         0         0         0         0         0         0         0         0
         0         0         0         0         0         0         0         0
         0         0         0         0         0         0         0         0
         0         0         0         0         0         0         0         0
         0         0         0         0         0         0         0         0
         0         0         0         0         0         0         0         0
         0         0         0         0         0         0         0         0
         0         0         0         0         0         0         0         0
         0         0         0         0         0         0         0         0
         0         0         0         0         0         0         0         0
         0         0         0         0         0         0         0         0
         0         0         0         0         0         0         0         0
         0         0         0         0         0         0         0         0
         0         0         0         0         0         0         0         0
         0         0         0         0         0         0         0         0
         0         0         0         0         0         0         0         0
         0         0         0         0         0         0         0         0
         0         0         0         0         0         0         0         0
         0         0         0         0         0         0         0         0
         0         0         0         0         0         0         0         0
         0         0         0         0         0         0         0         0
         0         0         0         0         0         0         0         0
         0         0         0         0         0         0         0         0
         0         0         0         0         0         0         0         0
         0         0         0         0         0         0         0         0
         0         0         0         0         0         0         0         0
         0         0         0         0         0         0         0         0
         0         0         0         0         0         0         0         0
         0         0         0         0         0         0         0         0
         0         0         0         0         0         0         0         0
         0         0         0         0         0         0         0         0
         0         0         0         0         0         0         0         0
         0         0         0         0         0         0         0         0
         0         0         0         0         0         0         0         0
         0         0         0         0         0         0         0         0
         0         0         0         0         0         0         0         0
         0         0         0         0         0         0         0         0
         0         0         0         0         0         0         0         0
         0         0         0         0         0         0         0         0
         0         0         0         0         0         0         0         0
         0         0         0         0         0         0         0         0
         0         0         0         0         0         0         0         0
         0         0         0         0         0         0         0         0
         0         0         0         0         0         0         0         0
         0         0         0         0         0         0         0         0
         0         0         0         0         0         0         0         0
         0         0         0         0         0         0         0         0
         0         0         0         0         0         0         0         0
         0         0         0         0         0         0         0         0
         0         0         0         0         0         0         0         0
         0         0         0         0         0         0         0         0
         0         0         0         0         0         0         0         0
         0         0         0         0         0         0         0         0
         0         0         0         0         0         0         0         0
         0         0         0         0         0         0         0         0
         0         0         0         0         0         0         0         0
         0         0         0         0         0         0         0         0
         0         0         0         0         0         0         0         0
         0         0         0         0         0         0         0         0
         0         0         0         0         0         0         0         0
         0         0         0         0         0         0         0         0
         0         0         0         0         0         0         0         0
         0         0         0         0         0         0         0         0
         0         0         0         0         0         0         0         0
         0         0         0         0         0         0         0         0
         0         0         0         0         0         0         0         0
         0         0         0         0         0         0         0         0
         0         0         0         0         0         0         0         0
         0         0         0         0         0         0         0         0
         0         0         0         0         0         0         0         0
         0         0         0         0         0         0         0         0
         0         0         0         0         0         0         0         0
         0         0         0         0         0         0         0         0
         0         0         0         0         0         0         0         0
         0         0         0         0         0         0         0         0
         0         0         0         0         0         0         0         0
         0         0         0         0         0         0         0         0
         0         0         0         0         0         0         0         0
         0         0         0         0         0         0         0         0
         0         0         0         0         0         0         0         0
         0         0         0         0         0         0         0         0
         0         0         0         0         0         0         0         0
         0         0         0         0         0         0         0         0
         0         0         0         0         0         0         0         0
         0         0         0         0         0         0         0         0
         0         0         0         0         0         0         0         0
         0         0         0         0         0         0         0         0
         0         0         0         0         0         0         0         0
         0         0         0         0         0         0         0         0
         0         0         0         0         0         0         0         0
         0         0         0         0         0         0         0         0
         0         0         0         0         0         0         0         0
         0         0         0         0         0         0         0         0
         0         0         0         0         0         0         0         0
         0         0         0         0         0         0         0         0
         0         0         0         0         0         0         0         0
         0         0         0         0         0         0         0         0
         0         0         0         0         0         0         0         0
         0         0         0         0         0         0         0         0
         0         0         0         0         0         0         0         0
         0         0         0         0         0         0         0         0
         0         0         0         0         0         0         0         0
         0         0         0         0         0         0         0         0
         0         0         0         0         0         0         0         0
         0         0         0         0         0         0         0         0
         0         0         0         0         0         0         0         0
         0         0         0         0         0         0         0         0
         0         0         0         0         0         0         0         0
         0         0         0         0         0         0         0         0
         0         0         0         0         0         0         0         0
         0         0         0         0         0         0         0         0
         0         0         0         0         0         0         0         0
         0         0         0         0         0         0         0         0
         0         0         0         0         0         0         0         0
         0         0         0         0         0         0         0         0
         0         0         0         0         0         0         0         0
         0         0         0         0         0         0         0         0
         0         0         0         0         0         0         0         0
         0         0         0         0         0         0         0         0
         0         0         0         0         0         0         0         0
         0         0         0         0         0         0         0         0
         0         0         0         0         0         0         0         0
         0         0         0         0         0         0         0         0
         0         0         0         0         0         0         0         0
         0         0         0         0         0         0         0         0
         0         0         0         0         0         0         0         0
         0         0         0         0         0         0         0         0
         0         0         0         0         0         0         0         0
         0         0         0         0         0         0         0         0
         0         0         0         0         0         0         0         0
         0         0         0         0         0         0         0         0
         0         0         0         0         0         0         0         0
         0         0         0         0         0         0         0         0
         0         0         0         0         0         0         0         0
         0         0         0         0         0         0         0         0
         0         0         0         0         0         0         0         0
         0         0         0         0         0         0         0         0
         0         0         0         0         0         0         0         0
         0         0         0         0         0         0         0         0
         0         0         0         0         0         0         0         0
         0         0         0         0         0         0         0         0
         0         0         0         0         0         0         0         0
         0         0         0         0         0         0         0         0
         0         0         0         0         0         0         0         0
         0         0         0         0         0         0         0         0
         0         0         0         0         0         0         0         0
         0         0         0         0         0         0         0         0
         0         0         0         0         0         0         0         0
         0         0         0         0         0         0         0         0
         0         0         0         0         0         0         0         0
         0         0         0         0         0         0         0         0
         0         0         0         0         0         0         0         0
         0         0         0         0         0         0         0         0
         0         0         0         0         0         0         0         0
         0         0         0         0         0         0         0         0
         0         0         0         0         0         0         0         0
         0         0         0         0         0         0         0         0
         0         0         0         0         0         0         0         0
         0         0         0         0         0         0         0         0
         0         0         0         0         0         0         0         0
         0         0         0         0         0         0         0         0
         0         0         0         0         0         0         0         0
         0         0         0         0         0         0         0         0
         0         0         0         0         0         0         0         0
         0         0         0         0         0         0         0         0
         0         0         0         0         0         0         0         0
         0         0         0         0         0         0         0         0
         0         0         0         0         0         0         0         0
         0         0         0         0         0         0         0         0
         0         0         0         0         0         0         0         0
         0         0         0         0         0         0         0         0
         0         0         0         0         0         0         0         0
         0         0         0         0         0         0         0         0
         0         0         0         0         0         0         0         0
         0         0         0         0         0         0         0         0
         0         0         0         0         0         0         0         0
         0         0         0         0         0         0         0         0
         0         0         0         0         0         0         0         0
         0         0         0         0         0         0         0         0
         0         0         0         0         0         0         0         0
         0         0         0         0         0         0         0         0
         0         0         0         0         0         0         0         0
         0         0         0         0         0         0         0         0
         0         0         0         0         0         0         0         0
         0         0         0         0         0         0         0         0
         0         0         0         0         0         0         0         0
         0         0         0         0         0         0         0         0
         0         0         0         0         0         0         0         0
         0         0         0         0         0         0         0         0
         0         0         0         0         0         0         0         0
         0         0         0         0         0         0         0         0
         0         0         0         0         0         0         0         0
         0         0         0         0         0         0         0         0
         0         0         0         0         0         0         0         0
         0         0         0         0         0         0         0         0
         0         0         0         0         0         0         0         0
         0         0         0         0         0         0         0         0
         0         0         0         0         0         0         0         0
         0         0         0         0         0         0         0         0
         0         0         0         0         0         0         0         0
         0         0         0         0         0         0         0         0
         0         0         0         0         0         0         0         0
         0         0         0         0         0         0         0         0
         0         0         0         0         0         0         0         0
         0         0         0         0         0         0         0         0
         0         0         0         0         0         0         0         0
         0         0         0         0         0         0         0         0
         0         0         0         0         0         0         0         0
         0         0         0         0         0         0         0         0
         0         0         0         0         0         0         0         0
         0         0         0         0         0         0         0         0
         0         0         0         0         0         0         0         0
         0         0         0         0         0         0         0         0
         0         0         0         0         0         0         0         0
         0         0         0         0         0         0         0         0
         0         0         0         0         0         0         0         0
         0         0         0         0         0         0         0         0
         0         0         0         0         0         0         0         0
         0         0         0         0         0         0         0         0
         0         0         0         0         0         0         0         0
         0         0         0         0         0         0         0         0
         0         0         0         0         0         0         0         0
         0         0         0         0         0         0         0         0
         0         0         0         0         0         0         0         0
         0         0         0         0         0         0         0         0
         0         0         0         0         0         0         0         0
         0         0         0         0         0         0         0         0
         0         0         0         0         0         0         0         0
         0         0         0         0         0         0         0         0
         0         0         0         0         0         0         0         0
         0         0         0         0         0         0         0         0
         0         0         0         0         0         0         0         0
         0         0         0         0         0         0         0         0
         0         0         0         0         0         0         0         0
         0         0         0         0         0         0         0         0
         0         0         0         0         0         0         0         0
         0         0         0         0         0         0         0         0
         0         0         0         0         0         0         0         0
         0         0         0         0         0         0         0         0
         0         0         0         0         0         0         0         0
         0         0         0         0         0         0         0         0
         0         0         0         0         0         0         0         0
         0         0         0         0         0         0         0         0
         0         0         0         0         0         0         0         0
         0         0         0         0         0         0         0         0
         0         0         0         0         0         0         0         0
         0         0         0         0         0         0         0         0
         0         0         0         0         0         0         0         0
         0         0         0         0         0         0         0         0
         0         0         0         0         0         0         0         0
         0         0         0         0         0         0         0         0
         0         0         0         0         0         0         0         0
         0         0         0         0         0         0         0         0
         0         0         0         0         0         0         0         0
         0         0         0         0         0         0         0         0
         0         0         0         0         0         0         0         0
         0         0         0         0         0         0         0         0
         0         0         0         0         0         0         0         0
         0         0         0         0         0         0         0         0
         0         0         0         0         0         0         0         0
         0         0         0         0         0         0         0         0
         0         0         0         0         0         0         0         0
         0         0         0         0         0         0         0         0
         0         0         0         0         0         0         0         0
         0         0         0         0         0         0         0         0
         0         0         0         0         0         0         0         0
         0         0         0         0         0         0         0         0
         0         0         0         0         0         0         0         0
         0         0         0         0         0         0         0         0
         0         0         0         0         0         0         0         0
         0         0         0         0         0         0         0         0
         0         0         0         0         0         0         0         0
         0         0         0         0         0         0         0         0
         0         0         0         0         0         0         0         0
         0         0         0         0         0         0         0         0
         0         0         0         0         0         0         0         0
         0         0         0         0         0         0         0         0
         0         0         0         0         0         0         0         0
         0         0         0         0         0         0         0         0
         0         0         0         0         0         0         0         0
         0         0         0         0         0         0         0         0
         0         0         0         0         0         0         0         0
         0         0         0         0         0         0         0         0
         0         0         0         0         0         0         0         0
         0         0         0         0         0         0         0         0
         0         0         0         0         0         0         0         0
         0         0         0         0         0         0         0         0
         0         0         0         0         0         0         0         0
         0         0         0         0         0         0         0         0
         0         0         0         0         0         0         0         0
         0         0         0         0         0         0         0         0
         0         0         0         0         0         0         0         0
         0         0         0         0         0         0         0         0
         0         0         0         0         0         0         0         0
         0         0         0         0         0         0         0         0
         0         0         0         0         0         0         0         0
         0         0         0         0         0         0         0         0
         0         0         0         0         0         0         0         0
         0         0         0         0         0         0         0         0
         0         0         0         0         0         0         0         0
         0         0         0         0         0         0         0         0
         0         0         0         0         0         0         0         0
         0         0         0         0         0         0         0         0
         0         0         0         0         0         0         0         0
         0         0         0         0         0         0         0         0
         0         0         0         0         0         0         0         0
         0         0         0         0         0         0         0         0
         0         0         0         0         0         0         0         0
         0         0         0         0         0         0         0         0
         0         0         0         0         0         0         0         0
         0         0         0         0         0         0         0         0
         0         0         0         0         0         0         0         0
         0         0         0         0         0         0         0         0
         0         0         0         0         0         0         0         0
         0         0         0         0         0         0         0         0
         0         0         0         0         0         0         0         0
         0         0         0         0         0         0         0         0
         0         0         0         0         0         0         0         0
         0         0         0         0         0         0         0         0
         0         0         0         0         0         0         0         0
         0         0         0         0         0         0         0         0
         0         0         0         0         0         0         0         0
         0         0         0         0         0         0         0         0
         0         0         0         0         0         0         0         0
         0         0         0         0         0         0         0         0
         0         0         0         0         0         0         0         0
         0         0         0         0         0         0         0         0
         0         0         0         0         0         0         0         0
         0         0         0         0         0         0         0         0
         0         0         0         0         0         0         0         0
         0         0         0         0         0         0         0         0
         0         0         0         0         0         0         0         0
         0         0         0         0         0         0         0         0
         0         0         0         0         0         0         0         0
         0         0         0         0         0         0         0         0
         0         0         0         0         0         0         0         0
         0         0         0         0         0         0         0         0
         0         0         0         0         0         0         0         0
         0         0         0         0         0         0         0         0
         0         0         0         0         0         0         0         0
         0         0         0         0         0         0         0         0
         0         0         0         0         0         0         0         0
         0         0         0         0         0         0         0         0
         0         0         0         0         0         0         0         0
         0         0         0         0         0         0         0         0
         0         0         0         0         0         0         0         0
         0         0         0         0         0         0         0         0
         0         0         0         0         0         0         0         0
         0         0         0         0         0         0         0         0
         0         0         0         0         0         0         0         0
         0         0         0         0         0         0         0         0
         0         0         0         0         0         0         0         0
         0         0         0         0         0         0         0         0
         0         0         0         0         0         0         0         0
         0         0         0         0         0         0         0         0
         0         0         0         0         0         0         0         0
         0         0         0         0         0         0         0         0
         0         0         0         0         0         0         0         0
         0         0         0         0         0         0         0         0
         0         0         0         0         0         0         0         0
         0         0         0         0         0         0         0         0
         0         0         0         0         0         0         0         0
         0         0         0         0         0         0         0         0
         0         0         0         0         0         0         0         0
         0         0         0         0         0         0         0         0
         0         0         0         0         0         0         0         0
         0         0         0         0         0         0         0         0
         0         0         0         0         0         0         0         0
         0         0         0         0         0         0         0         0
         0         0         0         0         0         0         0         0
         0         0         0         0         0         0         0         0
         0         0         0         0         0         0         0         0
         0         0         0         0         0         0         0         0
         0         0         0         0         0         0         0         0
         0         0         0         0         0         0         0         0
         0         0         0         0         0         0         0         0
         0         0         0         0         0         0         0         0
         0         0         0         0         0         0         0         0
         0         0         0         0         0         0         0         0
         0         0         0         0         0         0         0         0
         0         0         0         0         0         0         0         0
         0         0         0         0         0         0         0         0
         0         0         0         0         0         0         0         0
         0         0         0         0         0         0         0         0
         0         0         0         0         0         0         0         0
         0         0         0         0         0         0         0         0
         0         0         0         0         0         0         0         0
         0         0         0         0         0         0         0         0
         0         0         0         0         0         0         0         0
         0         0         0         0         0         0         0         0
         0         0         0         0         0         0         0         0
         0         0         0         0         0         0         0         0
         0         0         0         0         0         0         0         0
         0         0         0         0         0         0         0         0
         0         0         0         0         0         0         0         0
         0         0         0         0         0         0         0         0
         0         0         0         0         0         0         0         0
         0         0         0         0         0         0         0         0
         0         0         0         0         0         0         0         0
         0         0         0         0         0         0         0         0
         0         0         0         0         0         0         0         0
         0         0         0         0         0         0         0         0
         0         0         0         0         0         0         0         0
         0         0         0         0         0         0         0         0
         0         0         0         0         0         0         0         0
         0         0         0         0         0         0         0         0
         0         0         0         0         0         0         0         0
         0         0         0         0         0         0         0         0
         0         0         0         0         0         0         0         0
         0         0         0         0         0         0         0         0
         0         0         0         0         0         0         0         0
         0         0         0         0         0         0         0         0
         0         0         0         0         0         0         0         0
         0         0         0         0         0         0         0         0
         0         0         0         0         0         0         0         0
         0         0         0         0         0         0         0         0
         0         0         0         0         0         0         0         0
         0         0         0         0         0         0         0         0
         0         0         0         0         0         0         0         0
         0         0         0         0         0         0         0         0
         0         0         0         0         0         0         0         0
         0         0         0         0         0         0         0         0
         0         0         0         0         0         0         0         0
         0         0         0         0         0         0         0         0
         0         0         0         0         0         0         0         0
         0         0         0         0         0         0         0         0
         0         0         0         0         0         0         0         0
         0         0         0         0         0         0         0         0
         0         0         0         0         0         0         0         0
         0         0         0         0         0         0         0         0
         0         0         0         0         0         0         0         0
         0         0         0         0         0         0         0         0
         0         0         0         0         0         0         0         0
         0         0         0         0         0         0         0         0
         0         0         0         0         0         0         0         0
         0         0         0         0         0         0         0         0
         0         0         0         0         0         0         0         0
         0         0         0         0         0         0         0         0
         0         0         0         0         0         0         0         0
         0         0         0         0         0         0         0         0
         0         0         0         0         0         0         0         0
         0         0         0         0         0         0         0         0
         0         0         0         0         0         0         0         0
         0         0         0         0         0         0         0         0
         0         0         0         0         0         0         0         0
         0         0         0         0         0         0         0         0
         0         0         0         0         0         0         0         0
         0         0         0         0         0         0         0         0
         0         0         0         0         0         0         0         0
         0         0         0         0         0         0         0         0
         0         0         0         0         0         0         0         0
         0         0         0         0         0         0         0         0
         0         0         0         0         0         0         0         0
         0         0         0         0         0         0         0         0
         0         0         0         0         0         0         0         0
         0         0         0         0         0         0         0         0
         0         0         0         0         0         0         0         0
         0         0         0         0         0         0         0         0
         0         0         0         0         0         0         0         0
         0         0         0         0         0         0         0         0
         0         0         0         0         0         0         0         0
         0         0         0         0         0         0         0         0
         0         0         0         0         0         0         0         0
         0         0         0         0         0         0         0         0
         0         0         0         0         0         0         0         0
         0         0         0         0         0         0         0         0
         0         0         0         0         0         0         0         0
         0         0         0         0         0         0         0         0
         0         0         0         0         0         0         0         0
         0         0         0         0         0         0         0         0
         0         0         0         0         0         0         0         0
         0         0         0         0         0         0         0         0
         0         0         0         0         0         0         0         0
         0         0         0         0         0         0         0         0
         0         0         0         0         0         0         0         0
         0         0         0         0         0         0         0         0
         0         0         0         0         0         0         0         0
         0         0         0         0         0         0         0         0
         0         0         0         0         0         0         0         0
         0         0         0         0         0         0         0         0
         0         0         0         0         0         0         0         0
         0         0         0         0         0         0         0         0
         0         0         0         0         0         0         0         0
         0         0         0         0         0         0         0         0
         0         0         0         0         0         0         0         0
         0         0         0         0         0         0         0         0
         0         0         0         0         0         0         0         0
         0         0         0         0         0         0         0         0
         0         0         0         0         0         0         0         0
         0         0         0         0         0         0         0         0
         0         0         0         0         0         0         0         0
         0         0         0         0         0         0         0         0
         0         0         0         0         0         0         0         0
         0         0         0         0         0         0         0         0
         0         0         0         0         0         0         0         0
         0         0         0         0         0         0         0         0
         0         0         0         0         0         0         0         0
         0         0         0         0         0         0         0         0
         0         0         0         0         0         0         0         0
         0         0         0         0         0         0         0         0
         0         0         0         0         0         0         0         0
         0         0         0         0         0         0         0         0
         0         0         0         0         0         0         0         0
         0         0         0         0         0         0         0         0
         0         0         0         0         0         0         0         0
         0         0         0         0         0         0         0         0
         0         0         0         0         0         0         0         0
         0         0         0         0         0         0         0         0
         0         0         0         0         0         0         0         0
         0         0         0         0         0         0         0         0
         0         0         0         0         0         0         0         0
         0         0         0         0         0         0         0         0
         0         0         0         0         0         0         0         0
         0         0         0         0         0         0         0         0
         0         0         0         0         0         0         0         0
         0         0         0         0         0         0         0         0
         0         0         0         0         0         0         0         0
         0         0         0         0         0         0         0         0
         0         0         0         0         0         0         0         0
         0         0         0         0         0         0         0         0
         0         0         0         0         0         0         0         0
         0         0         0         0         0         0         0         0
         0         0         0         0         0         0         0         0
         0         0         0         0         0         0         0         0
         0         0         0         0         0         0         0         0
         0         0         0         0         0         0         0         0
         0         0         0         0         0         0         0         0
         0         0         0         0         0         0         0         0
         0         0         0         0         0         0         0         0
         0         0         0         0         0         0         0         0
         0         0         0         0         0         0         0         0
         0         0         0         0         0         0         0         0
         0         0         0         0         0         0         0         0
         0         0         0         0         0         0         0         0
         0         0         0         0         0         0         0         0
         0         0         0         0         0         0         0         0
         0         0         0         0         0         0         0         0
         0         0         0         0         0         0         0         0
         0         0         0         0         0         0         0         0
         0         0         0         0         0         0         0         0
         0         0         0         0         0         0         0         0
         0         0         0         0         0         0         0         0
         0         0         0         0         0         0         0         0
         0         0         0         0         0         0         0         0
         0         0         0         0         0         0         0         0
         0         0         0         0         0         0         0         0
         0         0         0         0         0         0         0         0
         0         0         0         0         0         0         0         0
         0         0         0         0         0         0         0         0
         0         0         0         0         0         0         0         0
         0         0         0         0         0         0         0         0
         0         0         0         0         0         0         0         0
         0         0         0         0         0         0         0         0
         0         0         0         0         0         0         0         0
         0         0         0         0         0         0         0         0
         0         0         0         0         0         0         0         0
         0         0         0         0         0         0         0         0
         0         0         0         0         0         0         0         0
         0         0         0         0         0         0         0         0
         0         0         0         0         0         0         0         0
         0         0         0         0         0         0         0         0
         0         0         0         0         0         0         0         0
         0         0         0         0         0         0         0         0
         0         0         0         0         0         0         0         0
         0         0         0         0         0         0         0         0
         0         0         0         0         0         0         0         0
         0         0         0         0         0         0         0         0
         0         0         0         0         0         0         0         0
         0         0         0         0         0         0         0         0
         0         0         0         0         0         0         0         0
         0         0         0         0         0         0         0         0
         0         0         0         0         0         0         0         0
         0         0         0         0         0         0         0         0
         0         0         0         0         0         0         0         0
         0         0         0         0         0         0         0         0
         0         0         0         0         0         0         0         0
         0         0         0         0         0         0         0         0
         0         0         0         0         0         0         0         0
         0         0         0         0         0         0         0         0
         0         0         0         0         0         0         0         0
         0         0         0         0         0         0         0         0
         0         0         0         0         0         0         0         0
         0         0         0         0         0         0         0         0
         0         0         0         0         0         0         0         0
         0         0         0         0         0         0         0         0
         0         0         0         0         0         0         0         0
         0         0         0         0         0         0         0         0
         0         0         0         0         0         0         0         0
         0         0         0         0         0         0         0         0
         0         0         0         0         0         0         0         0
         0         0         0         0         0         0         0         0
         0         0         0         0         0         0         0         0
         0         0         0         0         0         0         0         0
         0         0         0         0         0         0         0         0
         0         0         0         0         0         0         0         0
         0         0         0         0         0         0         0         0
         0         0         0         0         0         0         0         0
         0         0         0         0         0         0         0         0
         0         0         0         0         0         0         0         0
         0         0         0         0         0         0         0         0
         0         0         0         0         0         0         0         0
         0         0         0         0         0         0         0         0
         0         0         0         0         0         0         0         0
         0         0         0         0         0         0         0         0
         0         0         0         0         0         0         0         0
         0         0         0         0         0         0         0         0
         0         0         0         0         0         0         0         0
         0         0         0         0         0         0         0         0
         0         0         0         0         0         0         0         0
         0         0         0         0         0         0         0         0
         0         0         0         0         0         0         0         0
         0         0         0         0         0         0         0         0
         0         0         0         0         0         0         0         0
         0         0         0         0         0         0         0         0
         0         0         0         0         0         0         0         0
         0         0         0         0         0         0         0         0
         0         0         0         0         0         0         0         0
         0         0         0         0         0         0         0         0
         0         0         0         0         0         0         0         0
         0         0         0         0         0         0         0         0
         0         0         0         0         0         0         0         0
         0         0         0         0         0         0         0         0
         0         0         0         0         0         0         0         0
         0         0         0         0         0         0         0         0
         0         0         0         0         0         0         0         0
         0         0         0         0         0         0         0         0
         0         0         0         0         0         0         0         0
         0         0         0         0         0         0         0         0
         0         0         0         0         0         0         0         0
         0         0         0         0         0         0         0         0
         0         0         0         0         0         0         0         0
         0         0         0         0         0         0         0         0
         0         0         0         0         0         0         0         0
         0         0         0         0         0         0         0         0
         0         0         0         0         0         0         0         0
         0         0         0         0         0         0         0         0
         0         0         0         0         0         0         0         0
         0         0         0         0         0         0         0         0
         0         0         0         0         0         0         0         0
         0         0         0         0         0         0         0         0
         0         0         0         0         0         0         0         0
         0         0         0         0         0         0         0         0
         0         0         0         0         0         0         0         0
         0         0         0         0         0         0         0         0
         0         0         0         0         0         0         0         0
         0         0         0         0         0         0         0         0
         0         0         0         0         0         0         0         0
         0         0         0         0         0         0         0         0
         0         0         0         0         0         0         0         0
         0         0         0         0         0         0         0         0
         0         0         0         0         0         0         0         0
         0         0         0         0         0         0         0         0
         0         0         0         0         0         0         0         0
         0         0         0         0         0         0         0         0
         0         0         0         0         0         0         0         0
         0         0         0         0         0         0         0         0
         0         0         0         0         0         0         0         0
         0         0         0         0         0         0         0         0
         0         0         0         0         0         0         0         0
         0         0         0         0         0         0         0         0
         0         0         0         0         0         0         0         0
         0         0         0         0         0         0         0         0
         0         0         0         0         0         0         0         0
         0         0         0         0         0         0         0         0
         0         0         0         0         0         0         0         0
         0         0         0         0         0         0         0         0
         0         0         0         0         0         0         0         0
         0         0         0         0         0         0         0         0
         0         0         0         0         0         0         0         0
         0         0         0         0         0         0         0         0
         0         0         0         0         0         0         0         0
         0         0         0         0         0         0         0         0
         0         0         0         0         0         0         0         0
         0         0         0         0         0         0         0         0
         0         0         0         0         0         0         0         0
         0         0         0         0         0         0         0         0
         0         0         0         0         0         0         0         0
         0         0         0         0         0         0         0         0
         0         0         0         0         0         0         0         0
         0         0         0         0         0         0         0         0
         0         0         0         0         0         0         0         0
         0         0         0         0         0         0         0         0
         0         0         0         0         0         0         0         0
         0         0         0         0         0         0         0         0
         0         0         0         0         0         0         0         0
         0         0         0         0         0         0         0         0
         0         0         0         0         0         0         0         0
         0         0         0         0         0         0         0         0
         0         0         0         0         0         0         0         0
         0         0         0         0         0         0         0         0
         0         0         0         0         0         0         0         0
         0         0         0         0         0         0         0         0
         0         0         0         0         0         0         0         0
         0         0         0         0         0         0         0         0
         0         0         0         0         0         0         0         0
         0         0         0         0         0         0         0         0
         0         0         0         0         0         0         0         0
         0         0         0         0         0         0         0         0
         0         0         0         0         0         0         0         0
         0         0         0         0         0         0         0         0
         0         0         0         0         0         0         0         0
         0         0         0         0         0         0         0         0
         0         0         0         0         0         0         0         0
         0         0         0         0         0         0         0         0
         0         0         0         0         0         0         0         0
         0         0         0         0         0         0         0         0
         0         0         0         0         0         0         0         0
         0         0         0         0         0         0         0         0
         0         0         0         0         0         0         0         0
         0         0         0         0         0         0         0         0
         0         0         0         0         0         0         0         0
         0         0         0         0         0         0         0         0
         0         0         0         0         0         0         0         0
         0         0         0         0         0         0         0         0
         0         0         0         0         0         0         0         0
         0         0         0         0         0         0         0         0
         0         0         0         0         0         0         0         0
         0         0         0         0         0         0         0         0
         0         0         0         0         0         0         0         0
         0         0         0         0         0         0         0         0
         0         0         0         0         0         0         0         0
         0         0         0         0         0         0         0         0
         0         0         0         0         0         0         0         0
         0         0         0         0         0         0         0         0
         0         0         0         0         0         0         0         0
         0         0         0         0         0         0         0         0
         0         0         0         0         0         0         0         0
         0         0         0         0         0         0         0         0
         0         0         0         0         0         0         0         0
         0         0         0         0         0         0         0         0
         0         0         0         0         0         0         0         0
         0         0         0         0         0         0         0         0
         0         0         0         0         0         0         0         0
         0         0         0         0         0         0         0         0
         0         0         0         0         0         0         0         0
         0         0         0         0         0         0         0         0
         0         0         0         0         0         0         0         0
         0         0         0         0         0         0         0         0
         0         0         0         0         0         0         0         0
         0         0         0         0         0         0         0         0
         0         0         0         0         0         0         0         0
         0         0         0         0         0         0         0         0
         0         0         0         0         0         0         0         0
         0         0         0         0         0         0         0         0
         0         0         0         0         0         0         0         0
         0         0         0         0         0         0         0         0
         0         0         0         0         0         0         0         0
         0         0         0         0         0         0         0         0
         0         0         0         0         0         0         0         0
         0         0         0         0         0         0         0         0
         0         0         0         0         0         0         0         0
         0         0         0         0         0         0         0         0
         0         0         0         0         0         0         0         0
         0         0         0         0         0         0         0         0
         0         0         0         0         0         0         0         0
         0         0         0         0         0         0         0         0
         0         0         0         0         0         0         0         0
         0         0         0         0         0         0         0         0
         0         0         0         0         0         0         0         0
         0         0         0         0         0         0         0         0
         0         0         0         0         0         0         0         0
         0         0         0         0         0         0         0         0
         0         0         0         0         0         0         0         0
         0         0         0         0         0         0         0         0
         0         0         0         0         0         0         0         0
         0         0         0         0         0         0         0         0
         0         0         0         0         0         0         0         0
         0         0         0         0         0         0         0         0
         0         0         0         0         0         0         0         0
         0         0         0         0         0         0         0         0
         0         0         0         0         0         0         0         0
         0         0         0         0         0         0         0         0
         0         0         0         0         0         0         0         0
         0         0         0         0         0         0         0         0
         0         0         0         0         0         0         0         0
         0         0         0         0         0         0         0         0
         0         0         0         0         0         0         0         0
         0         0         0         0         0         0         0         0
         0         0         0         0         0         0         0         0
         0         0         0         0         0         0         0         0
         0         0         0         0         0         0         0         0
         0         0         0         0         0         0         0         0
         0         0         0         0         0         0         0         0
         0         0         0         0         0         0         0         0
         0         0         0         0         0         0         0         0
         0         0         0         0         0         0         0         0
         0         0         0         0         0         0         0         0
         0         0         0         0         0         0         0         0
         0         0         0         0         0         0         0         0
         0         0         0         0         0         0         0         0
         0         0         0         0         0         0         0         0
         0         0         0         0         0         0         0         0
         0         0         0         0         0         0         0         0
         0         0         0         0         0         0         0         0
         0         0         0         0         0         0         0         0
         0         0         0         0         0         0         0         0
         0         0         0         0         0         0         0         0
         0         0         0         0         0         0         0         0
         0         0         0         0         0         0         0         0
         0         0         0         0         0         0         0         0
         0         0         0         0         0         0         0         0
         0         0         0         0         0         0         0         0
         0         0         0         0         0         0         0         0
         0         0         0         0         0         0         0         0
         0         0         0         0         0         0         0         0
         0         0         0         0         0         0         0         0
         0         0         0         0         0         0         0         0
         0         0         0         0         0         0         0         0
         0         0         0         0         0         0         0         0
         0         0         0         0         0         0         0         0
         0         0         0         0         0         0         0         0
         0         0         0         0         0         0         0         0
         0         0         0         0         0         0         0         0
         0         0         0         0         0         0         0         0
         0         0         0         0         0         0         0         0
         0         0         0         0         0         0         0         0
         0         0         0         0         0         0         0         0
         0         0         0         0         0         0         0         0
         0         0         0         0         0         0         0         0
         0         0         0         0         0         0         0         0
         0         0         0         0         0         0         0         0
         0         0         0         0         0         0         0         0
         0         0         0         0         0         0         0         0
         0         0         0         0         0         0         0         0
         0         0         0         0         0         0         0         0
         0         0         0         0         0         0         0         0
         0         0         0         0         0         0         0         0
         0         0         0         0         0         0         0         0
         0         0         0         0         0         0         0         0
         0         0         0         0         0         0         0         0
         0         0         0         0         0         0         0         0
         0         0         0         0         0         0         0         0
         0         0         0         0         0         0         0         0
         0         0         0         0         0         0         0         0
         0         0         0         0         0         0         0         0
         0         0         0         0         0         0         0         0
         0         0         0         0         0         0         0         0
         0         0         0         0         0         0         0         0
         0         0         0         0         0         0         0         0
         0         0         0         0         0         0         0         0
         0         0         0         0         0         0         0         0
         0         0         0         0         0         0         0         0
         0         0         0         0         0         0         0         0
         0         0         0         0         0         0         0         0
         0         0         0         0         0         0         0         0
         0         0         0         0         0         0         0         0
         0         0         0         0         0         0         0         0
         0         0         0         0         0         0         0         0
         0         0         0         0         0         0         0         0
         0         0         0         0         0         0         0         0
         0         0         0         0         0         0         0         0
         0         0         0         0         0         0         0         0
         0         0         0         0         0         0         0         0
         0         0         0         0         0         0         0         0
         0         0         0         0         0         0         0         0
         0         0         0         0         0         0         0         0
         0         0         0         0         0         0         0         0
         0         0         0         0         0         0         0         0
         0         0         0         0         0         0         0         0
         0         0         0         0         0         0         0         0
         0         0         0         0         0         0         0         0
         0         0         0         0         0         0         0         0
         0         0         0         0         0         0         0         0
         0         0         0         0         0         0         0         0
         0         0         0         0         0         0         0         0
         0         0         0         0         0         0         0         0
         0         0         0         0         0         0         0         0
         0         0         0         0         0         0         0         0
         0         0         0         0         0         0         0         0
         0         0         0         0         0         0         0         0
         0         0         0         0         0         0         0         0
         0         0         0         0         0         0         0         0
         0         0         0         0         0         0         0         0
         0         0         0         0         0         0         0         0
         0         0         0         0         0         0         0         0
         0         0         0         0         0         0         0         0
         0         0         0         0         0         0         0         0
         0         0         0         0         0         0         0         0
         0         0         0         0         0         0         0         0
         0         0         0         0         0         0         0         0
         0         0         0         0         0         0         0         0
         0         0         0         0         0         0         0         0
         0         0         0         0         0         0         0         0
         0         0         0         0         0         0         0         0
         0         0         0         0         0         0         0         0
         0         0         0         0         0         0         0         0
         0         0         0         0         0         0         0         0
         0         0         0         0         0         0         0         0
         0         0         0         0         0         0         0         0
         0         0         0         0         0         0         0         0
         0         0         0         0         0         0         0         0
         0         0         0         0         0         0         0         0
         0         0         0         0         0         0         0         0
         0         0         0         0         0         0         0         0
         0         0         0         0         0         0         0         0
         0         0         0         0         0         0         0         0
         0         0         0         0         0         0         0         0
         0         0         0         0         0         0         0         0
         0         0         0         0         0         0         0         0
         0         0         0         0         0         0         0         0
         0         0         0         0         0         0         0         0
         0         0         0         0         0         0         0         0
         0         0         0         0         0         0         0         0
         0         0         0         0         0         0         0         0
         0         0         0         0         0         0         0         0
         0         0         0         0         0         0         0         0
         0         0         0         0         0         0         0         0
         0         0         0         0         0         0         0         0
         0         0         0         0         0         0         0         0
         0         0         0         0         0         0         0         0
         0         0         0         0         0         0         0         0
         0         0         0         0         0         0         0         0
         0         0         0         0         0         0         0         0
         0         0         0         0         0         0         0         0
         0         0         0         0         0         0         0         0
         0         0         0         0         0         0         0         0
         0         0         0         0         0         0         0         0
         0         0         0         0         0         0         0         0
         0         0         0         0         0         0         0         0
         0         0         0         0         0         0         0         0
         0         0         0         0         0         0         0         0
         0         0         0         0         0         0         0         0
         0         0         0         0         0         0         0         0
         0         0         0         0         0         0         0         0
         0         0         0         0         0         0         0         0
         0         0         0         0         0         0         0         0
         0         0         0         0         0         0         0         0
         0         0         0         0         0         0         0         0
         0         0         0         0         0         0         0         0
         0         0         0         0         0         0         0         0
         0         0         0         0         0         0         0         0
         0         0         0         0         0         0         0         0
         0         0         0         0         0         0         0         0
         0         0         0         0         0         0         0         0
         0         0         0         0         0         0         0         0
         0         0         0         0         0         0         0         0
         0         0         0         0         0         0         0         0
         0         0         0         0         0         0         0         0
         0         0         0         0         0         0         0         0
         0         0         0         0         0         0         0         0
         0         0         0         0         0         0         0         0
         0         0         0         0         0         0         0         0
         0         0         0         0         0         0         0         0
         0         0         0         0         0         0         0         0
         0         0         0         0         0         0         0         0
         0         0         0         0         0         0         0         0
         0         0         0         0         0         0         0         0
         0         0         0         0         0         0         0         0
         0         0         0         0         0         0         0         0
         0         0         0         0         0         0         0         0
         0         0         0         0         0         0         0         0
         0         0         0         0         0         0         0         0
         0         0         0         0         0         0         0         0
         0         0         0         0         0         0         0         0
         0         0         0         0         0         0         0         0
         0         0         0         0         0         0         0         0
         0         0         0         0         0         0         0         0
         0         0         0         0         0         0         0         0
         0         0         0         0         0         0         0         0
         0         0         0         0         0         0         0         0
         0         0         0         0         0         0         0         0
         0         0         0         0         0         0         0         0
         0         0         0         0         0         0         0         0
         0         0         0         0         0         0         0         0
         0         0         0         0         0         0         0         0
         0         0         0         0         0         0         0         0
         0         0         0         0         0         0         0         0
         0         0         0         0         0         0         0         0
         0         0         0         0         0         0         0         0
         0         0         0         0         0         0         0         0
         0         0         0         0         0         0         0         0
         0         0         0         0         0         0         0         0
         0         0         0         0         0         0         0         0
         0         0         0         0         0         0         0         0
         0         0         0         0         0         0         0         0
         0         0         0         0         0         0         0         0
         0         0         0         0         0         0         0         0
         0         0         0         0         0         0         0         0
         0         0         0         0         0         0         0         0
         0         0         0         0         0         0         0         0
         0         0         0         0         0         0         0         0
         0         0         0         0         0         0         0         0
         0         0         0         0         0         0         0         0
         0         0         0         0         0         0         0         0
         0         0         0         0         0         0         0         0
         0         0         0         0         0         0         0         0
         0         0         0         0         0         0         0         0
         0         0         0         0         0         0         0         0
         0         0         0         0         0         0         0         0
         0         0         0         0         0         0         0         0
         0         0         0         0         0         0         0         0
         0         0         0         0         0         0         0         0
         0         0         0         0         0         0         0         0
         0         0         0         0         0         0         0         0
         0         0         0         0         0         0         0         0
         0         0         0         0         0         0         0         0
         0         0         0         0         0         0         0         0
         0         0         0         0         0         0         0         0
         0         0         0         0         0         0         0         0
         0         0         0         0         0         0         0         0
         0         0         0         0         0         0         0         0
         0         0         0         0         0         0         0         0
         0         0         0         0         0         0         0         0
         0         0         0         0         0         0         0         0
         0         0         0         0         0         0         0         0
         0         0         0         0         0         0         0         0
         0         0         0         0         0         0         0         0
         0         0         0         0         0         0         0         0
         0         0         0         0         0         0         0         0
         0         0         0         0         0         0         0         0
         0         0         0         0         0         0         0         0
         0         0         0         0         0         0         0         0
         0         0         0         0         0         0         0         0
         0         0         0         0         0         0         0         0
         0         0         0         0         0         0         0         0
         0         0         0         0         0         0         0         0
         0         0         0         0         0         0         0         0
         0         0         0         0         0         0         0         0
         0         0         0         0         0         0         0         0
         0         0         0         0         0         0         0         0
         0         0         0         0         0         0         0         0
         0         0         0         0         0         0         0         0
         0         0         0         0         0         0         0         0
         0         0         0         0         0         0         0         0
         0         0         0         0         0         0         0         0
         0         0         0         0         0         0         0         0
         0         0         0         0         0         0         0         0
         0         0         0         0         0         0         0         0
         0         0         0         0         0         0         0         0
         0         0         0         0         0         0         0         0
         0         0         0         0         0         0         0         0
         0         0         0         0         0         0         0         0
         0         0         0         0         0         0         0         0
         0         0         0         0         0         0         0         0
         0         0         0         0         0         0         0         0
         0         0         0         0         0         0         0         0
         0         0         0         0         0         0         0         0
         0         0         0         0         0         0         0         0
         0         0         0         0         0         0         0         0
         0         0         0         0         0         0         0         0
         0         0         0         0         0         0         0         0
         0         0         0         0         0         0         0         0
         0         0         0         0         0         0         0         0
         0         0         0         0         0         0         0         0
         0         0         0         0         0         0         0         0
         0         0         0         0         0         0         0         0
         0         0         0         0         0         0         0         0
         0         0         0         0         0         0         0         0
         0         0         0         0         0         0         0         0
         0         0         0         0         0         0         0         0
         0         0         0         0         0         0         0         0
         0         0         0         0         0         0         0         0
         0         0         0         0         0         0         0         0
         0         0         0         0         0         0         0         0
         0         0         0         0         0         0         0         0
         0         0         0         0         0         0         0         0
         0         0         0         0         0         0         0         0
         0         0         0         0         0         0         0         0
         0         0         0         0         0         0         0         0
         0         0         0         0         0         0         0         0
         0         0         0         0         0         0         0         0
         0         0         0         0         0         0         0         0
         0         0         0         0         0         0         0         0
         0         0         0         0         0         0         0         0
         0         0         0         0         0         0         0         0
         0         0         0         0         0         0         0         0
         0         0         0         0         0         0         0         0
         0         0         0         0         0         0         0         0
         0         0         0         0         0         0         0         0
         0         0         0         0         0         0         0         0
         0         0         0         0         0         0         0         0
         0         0         0         0         0         0         0         0
         0         0         0         0         0         0         0         0
         0         0         0         0         0         0         0         0
         0         0         0         0         0         0         0         0
         0         0         0         0         0         0         0         0
         0         0         0         0         0         0         0         0
         0         0         0         0         0         0         0         0
         0         0         0         0         0         0         0         0
         0         0         0         0         0         0         0         0
         0         0         0         0         0         0         0         0
         0         0         0         0         0         0         0         0
         0         0         0         0         0         0         0         0
         0         0         0         0         0         0         0         0
         0         0         0         0         0         0         0         0
         0         0         0         0         0         0         0         0
         0         0         0         0         0         0         0         0
         0         0         0         0         0         0         0         0
         0         0         0         0         0         0         0         0
         0         0         0         0         0         0         0         0
         0         0         0         0         0         0         0         0
         0         0         0         0         0         0         0         0
         0         0         0         0         0         0         0         0
         0         0         0         0         0         0         0         0
         0         0         0         0         0         0         0         0
         0         0         0         0         0         0         0         0
         0         0         0         0         0         0         0         0
         0         0         0         0         0         0         0         0
         0         0         0         0         0         0         0         0
         0         0         0         0         0         0         0         0
         0         0         0         0         0         0         0         0
         0         0         0         0         0         0         0         0
         0         0         0         0         0         0         0         0
         0         0         0         0         0         0         0         0
         0         0         0         0         0         0         0         0
         0         0         0         0         0         0         0         0
         0         0         0         0         0         0         0         0
         0         0         0         0         0         0         0         0
         0         0         0         0         0         0         0         0
         0         0         0         0         0         0         0         0
         0         0         0         0         0         0         0         0
         0         0         0         0         0         0         0         0
         0         0         0         0         0         0         0         0
         0         0         0         0         0         0         0         0
         0         0         0         0         0         0         0         0
         0         0         0         0         0         0         0         0
         0         0         0         0         0         0         0         0
         0         0         0         0         0         0         0         0
         0         0         0         0         0         0         0         0
         0         0         0         0         0         0         0         0
         0         0         0         0         0         0         0         0
         0         0         0         0         0         0         0         0
         0         0         0         0         0         0         0         0
         0         0         0         0         0         0         0         0
         0         0         0         0         0         0         0         0
         0         0         0         0         0         0         0         0
         0         0         0         0         0         0         0         0
         0         0         0         0         0         0         0         0
         0         0         0         0         0         0         0         0
         0         0         0         0         0         0         0         0
         0         0         0         0         0         0         0         0
         0         0         0         0         0         0         0         0
         0         0         0         0         0         0         0         0
         0         0         0         0         0         0         0         0
         0         0         0         0         0         0         0         0
         0         0         0         0         0         0         0         0
         0         0         0         0         0         0         0         0
         0         0         0         0         0         0         0         0
         0         0         0         0         0         0         0         0
         0         0         0         0         0         0         0         0
         0         0         0         0         0         0         0         0
         0         0         0         0         0         0         0         0
         0         0         0         0         0         0         0         0
         0         0         0         0         0         0         0         0
         0         0         0         0         0         0         0         0
         0         0         0         0         0         0         0         0
         0         0         0         0         0         0         0         0
         0         0         0         0         0         0         0         0
         0         0         0         0         0         0         0         0
         0         0         0         0         0         0         0         0
         0         0         0         0         0         0         0         0
         0         0         0         0         0         0         0         0
         0         0         0         0         0         0         0         0
         0         0         0         0         0         0         0         0
         0         0         0         0         0         0         0         0
         0         0         0         0         0         0         0         0
         0         0         0         0         0         0         0         0
         0         0         0         0         0         0         0         0
         0         0         0         0         0         0         0         0
         0         0         0         0         0         0         0         0
         0         0         0         0         0         0         0         0
         0         0         0         0         0         0         0         0
         0         0         0         0         0         0         0         0
         0         0         0         0         0         0         0         0
         0         0         0         0         0         0         0         0
         0         0         0         0         0         0         0         0
         0         0         0         0         0         0         0         0
         0         0         0         0         0         0         0         0
         0         0         0         0         0         0         0         0
         0         0         0         0         0         0         0         0
         0         0         0         0         0         0         0         0
         0         0         0         0         0         0         0         0
         0         0         0         0         0         0         0         0
         0         0         0         0         0         0         0         0
         0         0         0         0         0         0         0         0
         0         0         0         0         0         0         0         0
         0         0         0         0         0         0         0         0
         0         0         0         0         0         0         0         0
         0         0         0         0         0         0         0         0
         0         0         0         0         0         0         0         0
         0         0         0         0         0         0         0         0
         0         0         0         0         0         0         0         0
         0         0         0         0         0         0         0         0
         0         0         0         0         0         0         0         0
         0         0         0         0         0         0         0         0
         0         0         0         0         0         0         0         0
         0         0         0         0         0         0         0         0
         0         0         0         0         0         0         0         0
         0         0         0         0         0         0         0         0
         0         0         0         0         0         0         0         0
         0         0         0         0         0         0         0         0
         0         0         0         0         0         0         0         0
         0         0         0         0         0         0         0         0
         0         0         0         0         0         0         0         0
         0         0         0         0         0         0         0         0
         0         0         0         0         0         0         0         0
         0         0         0         0         0         0         0         0
         0         0         0         0         0         0         0         0
         0         0         0         0         0         0         0         0
         0         0         0         0         0         0         0         0
         0         0         0         0         0         0         0         0
         0         0         0         0         0         0         0         0
         0         0         0         0         0         0         0         0
         0         0         0         0         0         0         0         0
         0         0         0         0         0         0         0         0
         0         0         0         0         0         0         0         0
         0         0         0         0         0         0         0         0
         0         0         0         0         0         0         0         0
         0         0         0         0         0         0         0         0
         0         0         0         0         0         0         0         0
         0         0         0         0         0         0         0         0
         0         0         0         0         0         0         0         0
         0         0         0         0         0         0         0         0
         0         0         0         0         0         0         0         0
         0         0         0         0         0         0         0         0
         0         0         0         0         0         0         0         0
         0         0         0         0         0         0         0         0
         0         0         0         0         0         0         0         0
         0         0         0         0         0         0         0         0
         0         0         0         0         0         0         0         0
         0         0         0         0         0         0         0         0
         0         0         0         0         0         0         0         0
         0         0         0         0         0         0         0         0
         0         0         0         0         0         0         0         0
         0         0         0         0         0         0         0         0
         0         0         0         0         0         0         0         0
         0         0         0         0         0         0         0         0
         0         0         0         0         0         0         0         0
         0         0         0         0         0         0         0         0
         0         0         0         0         0         0         0         0
         0         0         0         0         0         0         0         0
         0         0         0         0         0         0         0         0
         0         0         0         0         0         0         0         0
         0         0         0         0         0         0         0         0
         0         0         0         0         0         0         0         0
         0         0         0         0         0         0         0         0
         0         0         0         0         0         0         0         0
         0         0         0         0         0         0         0         0
         0         0         0         0         0         0         0         0
         0         0         0         0         0         0         0         0
         0         0         0         0         0         0         0         0
         0         0         0         0         0         0         0         0
         0         0         0         0         0         0         0         0
         0         0         0         0         0         0         0         0
         0         0         0         0         0         0         0         0
         0         0         0         0         0         0         0         0
         0         0         0         0         0         0         0         0
         0         0         0         0         0         0         0         0
         0         0         0         0         0         0         0         0
         0         0         0         0         0         0         0         0
         0         0         0         0         0         0         0         0
         0         0         0         0         0         0         0         0
         0         0         0         0         0         0         0         0
         0         0         0         0         0         0         0         0
         0         0         0         0         0         0         0         0
         0         0         0         0         0         0         0         0
         0         0         0         0         0         0         0         0
         0         0         0         0         0         0         0         0
         0         0         0         0         0         0         0         0
         0         0         0         0         0         0         0         0
         0         0         0         0         0         0         0         0
         0         0         0         0         0         0         0         0
         0         0         0         0         0         0         0         0
         0         0         0         0         0         0         0         0
         0         0         0         0         0         0         0         0
         0         0         0         0         0         0         0         0
         0         0         0         0         0         0         0         0
         0         0         0         0         0         0         0         0
         0         0         0         0         0         0         0         0
         0         0         0         0         0         0         0         0
         0         0         0         0         0         0         0         0
         0         0         0         0         0         0         0         0
         0         0         0         0         0         0         0         0
         0         0         0         0         0         0         0         0
         0         0         0         0         0         0         0         0
         0         0         0         0         0         0         0         0
         0         0         0         0         0         0         0         0
         0         0         0         0         0         0         0         0
         0         0         0         0         0         0         0         0
         0         0         0         0         0         0         0         0
         0         0         0         0         0         0         0         0
         0         0         0         0         0         0         0         0
         0         0         0         0         0         0         0         0
         0         0         0         0         0         0         0         0
         0         0         0         0         0         0         0         0
         0         0         0         0         0         0         0         0
         0         0         0         0         0         0         0         0
         0         0         0         0         0         0         0         0
         0         0         0         0         0         0         0         0
         0         0         0         0         0         0         0         0
         0         0         0         0         0         0         0         0
         0         0         0         0         0         0         0         0
         0         0         0         0         0         0         0         0
         0         0         0         0         0         0         0         0
         0         0         0         0         0         0         0         0
         0         0         0         0         0         0         0         0
         0         0         0         0         0         0         0         0
         0         0         0         0         0         0         0         0
         0         0         0         0         0         0         0         0
         0         0         0         0         0         0         0         0
         0         0         0         0         0         0         0         0
         0         0         0         0         0         0         0         0
         0         0         0         0         0         0         0         0
         0         0         0         0         0         0         0         0
         0         0         0         0         0         0         0         0
         0         0         0         0         0         0         0         0
         0         0         0         0         0         0         0         0
         0         0         0         0         0         0         0         0
         0         0         0         0         0         0         0         0
         0         0         0         0         0         0         0         0
         0         0         0         0         0         0         0         0
         0         0         0         0         0         0         0         0
         0         0         0         0         0         0         0         0
         0         0         0         0         0         0         0         0
         0         0         0         0         0         0         0         0
         0         0         0         0         0         0         0         0
         0         0         0         0         0         0         0         0
         0         0         0         0         0         0         0         0
         0         0         0         0         0         0         0         0
         0         0         0         0         0         0         0         0
         0         0         0         0         0         0         0         0
         0         0         0         0         0         0         0         0
         0         0         0         0         0         0         0         0
         0         0         0         0         0         0         0         0
         0         0         0         0         0         0         0         0
         0         0         0         0         0         0         0         0
         0         0         0         0         0         0         0         0
         0         0         0         0         0         0         0         0
         0         0         0         0         0         0         0         0
         0         0         0         0         0         0         0         0
         0         0         0         0         0         0         0         0
         0         0         0         0         0         0         0         0
         0         0         0         0         0         0         0         0
         0         0         0         0         0         0         0         0
         0         0         0         0         0         0         0         0
         0         0         0         0         0         0         0         0
         0         0         0         0         0         0         0         0
         0         0         0         0         0         0         0         0
         0         0         0         0         0         0         0         0
         0         0         0         0         0         0         0         0
         0         0         0         0         0         0         0         0
         0         0         0         0         0         0         0         0
         0         0         0         0         0         0         0         0
         0         0         0         0         0         0         0         0
         0         0         0         0         0         0         0         0
         0         0         0         0         0         0         0         0
         0         0         0         0         0         0         0         0
         0         0         0         0         0         0         0         0
         0         0         0         0         0         0         0         0
         0         0         0         0         0         0         0         0
         0         0         0         0         0         0         0         0
         0         0         0         0         0         0         0         0
         0         0         0         0         0         0         0         0
         0         0         0         0         0         0         0         0
         0         0         0         0         0         0         0         0
         0         0         0         0         0         0         0         0
         0         0         0         0         0         0         0         0
         0         0         0         0         0         0         0         0
         0         0         0         0         0         0         0         0
         0         0         0         0         0         0         0         0
         0         0         0         0         0         0         0         0
         0         0         0         0         0         0         0         0
         0         0         0         0         0         0         0         0
         0         0         0         0         0         0         0         0
         0         0         0         0         0         0         0         0
         0         0         0         0         0         0         0         0
         0         0         0         0         0         0         0         0
         0         0         0         0         0         0         0         0
         0         0         0         0         0         0         0         0
         0         0         0         0         0         0         0         0
         0         0         0         0         0         0         0         0
         0         0         0         0         0         0         0         0
         0         0         0         0         0         0         0         0
         0         0         0         0         0         0         0         0
         0         0         0         0         0         0         0         0
         0         0         0         0         0         0         0         0
         0         0         0         0         0         0         0         0
         0         0         0         0         0         0         0         0
         0         0         0         0         0         0         0         0
         0         0         0         0         0         0         0         0
         0         0         0         0         0         0         0         0
         0         0         0         0         0         0         0         0
         0         0         0         0         0         0         0         0
         0         0         0         0         0         0         0         0
         0         0         0         0         0         0         0         0
         0         0         0         0         0         0         0         0
         0         0         0         0         0         0         0         0
         0         0         0         0         0         0         0         0
         0         0         0         0         0         0         0         0
         0         0         0         0         0         0         0         0
         0         0         0         0         0         0         0         0
         0         0         0         0         0         0         0         0
         0         0         0         0         0         0         0         0
         0         0         0         0         0         0         0         0
         0         0         0         0         0         0         0         0
         0         0         0         0         0         0         0         0
         0         0         0         0         0         0         0         0
         0         0         0         0         0         0         0         0
         0         0         0         0         0         0         0         0
         0         0         0         0         0         0         0         0
         0         0         0         0         0         0         0         0
         0         0         0         0         0         0         0         0
         0         0         0         0         0         0         0         0
         0         0         0         0         0         0         0         0
         0         0         0         0         0         0         0         0
         0         0         0         0         0         0         0         0
         0         0         0         0         0         0         0         0
         0         0         0         0         0         0         0         0
         0         0         0         0         0         0         0         0
         0         0         0         0         0         0         0         0
         0         0         0         0         0         0         0         0
         0         0         0         0         0         0         0         0
         0         0         0         0         0         0         0         0
         0         0         0         0         0         0         0         0
         0         0         0         0         0         0         0         0
         0         0         0         0         0         0         0         0
         0         0         0         0         0         0         0         0
         0         0         0         0         0         0         0         0
         0         0         0         0         0         0         0         0
         0         0         0         0         0         0         0         0
         0         0         0         0         0         0         0         0
         0         0         0         0         0         0         0         0
         0         0         0         0         0         0         0         0
         0         0         0         0         0         0         0         0
         0         0         0         0         0         0         0         0
         0         0         0         0         0         0         0         0
         0         0         0         0         0         0         0         0
         0         0         0         0         0         0         0         0
         0         0         0         0         0         0         0         0
         0         0         0         0         0         0         0         0
         0         0         0         0         0         0         0         0
         0         0         0         0         0         0         0         0
         0         0         0         0         0         0         0         0
         0         0         0         0         0         0         0         0
         0         0         0         0         0         0         0         0
         0         0         0         0         0         0         0         0
         0         0         0         0         0         0         0         0
         0         0         0         0         0         0         0         0
         0         0         0         0         0         0         0         0
         0         0         0         0         0         0         0         0
         0         0         0         0         0         0         0         0
         0         0         0         0         0         0         0         0
         0         0         0         0         0         0         0         0
         0         0         0         0         0         0         0         0
         0         0         0         0         0         0         0         0
         0         0         0         0         0         0         0         0
         0         0         0         0         0         0         0         0
         0         0         0         0         0         0         0         0
         0         0         0         0         0         0         0         0
         0         0         0         0         0         0         0         0
         0         0         0         0         0         0         0         0
         0         0         0         0         0         0         0         0
         0         0         0         0         0         0         0         0
         0         0         0         0         0         0         0         0
         0         0         0         0         0         0         0         0
         0         0         0         0         0         0         0         0
         0         0         0         0         0         0         0         0
         0         0         0         0         0         0         0         0
         0         0         0         0         0         0         0         0
         0         0         0         0         0         0         0         0
         0         0         0         0         0         0         0         0
         0         0         0         0         0         0         0         0
         0         0         0         0         0         0         0         0
         0         0         0         0         0         0         0         0
         0         0         0         0         0         0         0         0
         0         0         0         0         0         0         0         0
         0         0         0         0         0         0         0         0
         0         0         0         0         0         0         0         0
         0         0         0         0         0         0         0         0
         0         0         0         0         0         0         0         0
         0         0         0         0         0         0         0         0
         0         0         0         0         0         0         0         0
         0         0         0         0         0         0         0         0
         0         0         0         0         0         0         0         0
         0         0         0         0         0         0         0         0
         0         0         0         0         0         0         0         0
         0         0         0         0         0         0         0         0
         0         0         0         0         0         0         0         0
         0         0         0         0         0         0         0         0
         0         0         0         0         0         0         0         0
         0         0         0         0         0         0         0         0
         0         0         0         0         0         0         0         0
         0         0         0         0         0         0         0         0
         0         0         0         0         0         0         0         0
         0         0         0         0         0         0         0         0
         0         0         0         0         0         0         0         0
         0         0         0         0         0         0         0         0
         0         0         0         0         0         0         0         0
         0         0         0         0         0         0         0         0
         0         0         0         0         0         0         0         0
         0         0         0         0         0         0         0         0
         0         0         0         0         0         0         0         0
         0         0         0         0         0         0         0         0
         0         0         0         0         0         0         0         0
         0         0         0         0         0         0         0         0
         0         0         0         0         0         0         0         0
         0         0         0         0         0         0         0         0
         0         0         0         0         0         0         0         0
         0         0         0         0         0         0         0         0
         0         0         0         0         0         0         0         0
         0         0         0         0         0         0         0         0
         0         0         0         0         0         0         0         0
         0         0         0         0         0         0         0         0
         0         0         0         0         0         0         0         0
         0         0         0         0         0         0         0         0
         0         0         0         0         0         0         0         0
         0         0         0         0         0         0         0         0
         0         0         0         0         0         0         0         0
         0         0         0         0         0         0         0         0
         0         0         0         0         0         0         0         0
         0         0         0         0         0         0         0         0
         0         0         0         0         0         0         0         0
         0         0         0         0         0         0         0         0
         0         0         0         0         0         0         0         0
         0         0         0         0         0         0         0         0
         0         0         0         0         0         0         0         0
         0         0         0         0         0         0         0         0
         0         0         0         0         0         0         0         0
         0         0         0         0         0         0         0         0
         0         0         0         0         0         0         0         0
         0         0         0         0         0         0         0         0
         0         0         0         0         0         0         0         0
         0         0         0         0         0         0         0         0
         0         0         0         0         0         0         0         0
         0         0         0         0         0         0         0         0
         0         0         0         0         0         0         0         0
         0         0         0         0         0         0         0         0
         0         0         0         0         0         0         0         0
         0         0         0         0         0         0         0         0
         0         0         0         0         0         0         0         0
         0         0         0         0         0         0         0         0
         0         0         0         0         0         0         0         0
         0         0         0         0         0         0         0         0
         0         0         0         0         0         0         0         0
         0         0         0         0         0         0         0         0
         0         0         0         0         0         0         0         0
         0         0         0         0         0         0         0         0
         0         0         0         0         0         0         0         0
         0         0         0         0         0         0         0         0
         0         0         0         0         0         0         0         0
         0         0         0         0         0         0         0         0
         0         0         0         0         0         0         0         0
         0         0         0         0         0         0         0         0
         0         0         0         0         0         0         0         0
         0         0         0         0         0         0         0         0
         0         0         0         0         0         0         0         0
         0         0         0         0         0         0         0         0
         0         0         0         0         0         0         0         0
         0         0         0         0         0         0         0         0
         0         0         0         0         0         0         0         0
         0         0         0         0         0         0         0         0
         0         0         0         0         0         0         0         0
         0         0         0         0         0         0         0         0
         0         0         0         0         0         0         0         0
         0         0         0         0         0         0         0         0
         0         0         0         0         0         0         0         0
         0         0         0         0         0         0         0         0
         0         0         0         0         0         0         0         0
         0         0         0         0         0         0         0         0
         0         0         0         0         0         0         0         0
         0         0         0         0         0         0         0         0
         0         0         0         0         0         0         0         0
         0         0         0         0         0         0         0         0
         0         0         0         0         0         0         0         0
         0         0         0         0         0         0         0         0
         0         0         0         0         0         0         0         0
         0         0         0         0         0         0         0         0
         0         0         0         0         0         0         0         0
         0         0         0         0         0         0         0         0
         0         0         0         0         0         0         0         0
         0         0         0         0         0         0         0         0
         0         0         0         0         0         0         0         0
         0         0         0         0         0         0         0         0
         0         0         0         0         0         0         0         0
         0         0         0         0         0         0         0         0
         0         0         0         0         0         0         0         0
         0         0         0         0         0         0         0         0
         0         0         0         0         0         0         0         0
         0         0         0         0         0         0         0         0
         0         0         0         0         0         0         0         0
         0         0         0         0         0         0         0         0
         0         0         0         0         0         0         0         0
         0         0         0         0         0         0         0         0
         0         0         0         0         0         0         0         0
         0         0         0         0         0         0         0         0
         0         0         0         0         0         0         0         0
         0         0         0         0         0         0         0         0
         0         0         0         0         0         0         0         0
         0         0         0         0         0         0         0         0
         0         0         0         0         0         0         0         0
         0         0         0         0         0         0         0         0
         0         0         0         0         0         0         0         0
         0         0         0         0         0         0         0         0
         0         0         0         0         0         0         0         0
         0         0         0         0         0         0         0         0
         0         0         0         0         0         0         0         0
         0         0         0         0         0         0         0         0
         0         0         0         0         0         0         0         0
         0         0         0         0         0         0         0         0
         0         0         0         0         0         0         0         0
         0         0         0         0         0         0         0         0
         0         0         0         0         0         0         0         0
         0         0         0         0         0         0         0         0
         0         0         0         0         0         0         0         0
         0         0         0         0         0         0         0         0
         0         0         0         0         0         0         0         0
         0         0         0         0         0         0         0         0
         0         0         0         0         0         0         0         0
         0         0         0         0         0         0         0         0
         0         0         0         0         0         0         0         0
         0         0         0         0         0         0         0         0
         0         0         0         0         0         0         0         0
         0         0         0         0         0         0         0         0
         0         0         0         0         0         0         0         0
         0         0         0         0         0         0         0         0
         0         0         0         0         0         0         0         0
         0         0         0         0         0         0         0         0
         0         0         0         0         0         0         0         0
         0         0         0         0         0         0         0         0
         0         0         0         0         0         0         0         0
         0         0         0         0         0         0         0         0
         0         0         0         0         0         0         0         0
         0         0         0         0         0         0         0         0
         0         0         0         0         0         0         0         0
         0         0         0         0         0         0         0         0
         0         0         0         0         0         0         0         0
         0         0         0         0         0         0         0         0
         0         0         0         0         0         0         0         0
         0         0         0         0         0         0         0         0
         0         0         0         0         0         0         0         0
         0         0         0         0         0         0         0         0
         0         0         0         0         0         0         0         0
         0         0         0         0         0         0         0         0
         0         0         0         0         0         0         0         0
         0         0         0         0         0         0         0         0
         0         0         0         0         0         0         0         0
         0         0         0         0         0         0         0         0
         0         0         0         0         0         0         0         0
         0         0         0         0         0         0         0         0
         0         0         0         0         0         0         0         0
         0         0         0         0         0         0         0         0
         0         0         0         0         0         0         0         0
         0         0         0         0         0         0         0         0
         0         0         0         0         0         0         0         0
         0         0         0         0         0         0         0         0
         0         0         0         0         0         0         0         0
         0         0         0         0         0         0         0         0
         0         0         0         0         0         0         0         0
         0         0         0         0         0         0         0         0
         0         0         0         0         0         0         0         0
         0         0         0         0         0         0         0         0
         0         0         0         0         0         0         0         0
         0         0         0         0         0         0         0         0
         0         0         0         0         0         0         0         0
         0         0         0         0         0         0         0         0
         0         0         0         0         0         0         0         0
         0         0         0         0         0         0         0         0
         0         0         0         0         0         0         0         0
         0         0         0         0         0         0         0         0
         0         0         0         0         0         0         0         0
         0         0         0         0         0         0         0         0
         0         0         0         0         0         0         0         0
         0         0         0         0         0         0         0         0
         0         0         0         0         0         0         0         0
         0         0         0         0         0         0         0         0
         0         0         0         0         0         0         0         0
         0         0         0         0         0         0         0         0
         0         0         0         0         0         0         0         0
         0         0         0         0         0         0         0         0
         0         0         0         0         0         0         0         0
         0         0         0         0         0         0         0         0
         0         0         0         0         0         0         0         0
         0         0         0         0         0         0         0         0
         0         0         0         0         0         0         0         0
         0         0         0         0         0         0         0         0
         0         0         0         0         0         0         0         0
         0         0         0         0         0         0         0         0
         0         0         0         0         0         0         0         0
         0         0         0         0         0         0         0         0
         0         0         0         0         0         0         0         0
         0         0         0         0         0         0         0         0
         0         0         0         0         0         0         0         0
         0         0         0         0         0         0         0         0
         0         0         0         0         0         0         0         0
         0         0         0         0         0         0         0         0
         0         0         0         0         0         0         0         0
         0         0         0         0         0         0         0         0
         0         0         0         0         0         0         0         0
         0         0         0         0         0         0         0         0
         0         0         0         0         0         0         0         0
         0         0         0         0         0         0         0         0
         0         0         0         0         0         0         0         0
         0         0         0         0         0         0         0         0
         0         0         0         0         0         0         0         0
         0         0         0         0         0         0         0         0
         0         0         0         0         0         0         0         0
         0         0         0         0         0         0         0         0
         0         0         0         0         0         0         0         0
         0         0         0         0         0         0         0         0
         0         0         0         0         0         0         0         0
         0         0         0         0         0         0         0         0
         0         0         0         0         0         0         0         0
         0         0         0         0         0         0         0         0
         0         0         0         0         0         0         0         0
         0         0         0         0         0         0         0         0
         0         0         0         0         0         0         0         0
         0         0         0         0         0         0         0         0
         0         0         0         0         0         0         0         0
         0         0         0         0         0         0         0         0
         0         0         0         0         0         0         0         0
         0         0         0         0         0         0         0         0
         0         0         0         0         0         0         0         0
         0         0         0         0         0         0         0         0
         0         0         0         0         0         0         0         0
         0         0         0         0         0         0         0         0
         0         0         0         0         0         0         0         0
         0         0         0         0         0         0         0         0
         0         0         0         0         0         0         0         0
         0         0         0         0         0         0         0         0
         0         0         0         0         0         0         0         0
         0         0         0         0         0         0         0         0
         0         0         0         0         0         0         0         0
         0         0         0         0         0         0         0         0
         0         0         0         0         0         0         0         0
         0         0         0         0         0         0         0         0
         0         0         0         0         0         0         0         0
         0         0         0         0         0         0         0         0
         0         0         0         0         0         0         0         0
         0         0         0         0         0         0         0         0
         0         0         0         0         0         0         0         0
         0         0         0         0         0         0         0         0
         0         0         0         0         0         0         0         0
         0         0         0         0         0         0         0         0
         0         0         0         0         0         0         0         0
         0         0         0         0         0         0         0         0
         0         0         0         0         0         0         0         0
         0         0         0         0         0         0         0         0
         0         0         0         0         0         0         0         0
         0         0         0         0         0         0         0         0
         0         0         0         0         0         0         0         0
         0         0         0         0         0         0         0         0
         0         0         0         0         0         0         0         0
         0         0         0         0         0         0         0         0
         0         0         0         0         0         0         0         0
         0         0         0         0         0         0         0         0
         0         0         0         0         0         0         0         0
         0         0         0         0         0         0         0         0
         0         0         0         0         0         0         0         0
         0         0         0         0         0         0         0         0
         0         0         0         0         0         0         0         0
         0         0         0         0         0         0         0         0
         0         0         0         0         0         0         0         0
         0         0         0         0         0         0         0         0
         0         0         0         0         0         0         0         0
         0         0         0         0         0         0         0         0
         0         0         0         0         0         0         0         0
         0         0         0         0         0         0         0         0
         0         0         0         0         0         0         0         0
         0         0         0         0         0         0         0         0
         0         0         0         0         0         0         0         0
         0         0         0         0         0         0         0         0
         0         0         0         0         0         0         0         0
         0         0         0         0         0         0         0         0
         0         0         0         0         0         0         0         0
         0         0         0         0         0         0         0         0
         0         0         0         0         0         0         0         0
         0         0         0         0         0         0         0         0
         0         0         0         0         0         0         0         0
         0         0         0         0         0         0         0         0
         0         0         0         0         0         0         0         0
         0         0         0         0         0         0         0         0
         0         0         0         0         0         0         0         0
         0         0         0         0         0         0         0         0
         0         0         0         0         0         0         0         0
         0         0         0         0         0         0         0         0
         0         0         0         0         0         0         0         0
         0         0         0         0         0         0         0         0
         0         0         0         0         0         0         0         0
         0         0         0         0         0         0         0         0
         0         0         0         0         0         0         0         0
         0         0         0         0         0         0         0         0
         0         0         0         0         0         0         0         0
         0         0         0         0         0         0         0         0
         0         0         0         0         0         0         0         0
         0         0         0         0         0         0         0         0
         0         0         0         0         0         0         0         0
         0         0         0         0         0         0         0         0
         0         0         0         0         0         0         0         0
         0         0         0         0         0         0         0         0
         0         0         0         0         0         0         0         0
         0         0         0         0         0         0         0         0
         0         0         0         0         0         0         0         0
         0         0         0         0         0         0         0         0
         0         0         0         0         0         0         0         0
         0         0         0         0         0         0         0         0
         0         0         0         0         0         0         0         0
         0         0         0         0         0         0         0         0
         0         0         0         0         0         0         0         0
         0         0         0         0         0         0         0         0
         0         0         0         0         0         0         0         0
         0         0         0         0         0         0         0         0
         0         0         0         0         0         0         0         0
         0         0         0         0         0         0         0         0
         0         0         0         0         0         0         0         0
         0         0         0         0         0         0         0         0
         0         0         0         0         0         0         0         0
         0         0         0         0         0         0         0         0
         0         0         0         0         0         0         0         0
         0         0         0         0         0         0         0         0
         0         0         0         0         0         0         0         0
         0         0         0         0         0         0         0         0
         0         0         0         0         0         0         0         0
         0         0         0         0         0         0         0         0
         0         0         0         0         0         0         0         0
         0         0         0         0         0         0         0         0
         0         0         0         0         0         0         0         0
         0         0         0         0         0         0         0         0
         0         0         0         0         0         0         0         0
         0         0         0         0         0         0         0         0
         0         0         0         0         0         0         0         0
         0         0         0         0         0         0         0         0
         0         0         0         0         0         0         0         0
         0         0         0         0         0         0         0         0
         0         0         0         0         0         0         0         0
         0         0         0         0         0         0         0         0
         0         0         0         0         0         0         0         0
         0         0         0         0         0         0         0         0
         0         0         0         0         0         0         0         0
         0         0         0         0         0         0         0         0
         0         0         0         0         0         0         0         0
         0         0         0         0         0         0         0         0
         0         0         0         0         0         0         0         0
         0         0         0         0         0         0         0         0
         0         0         0         0         0         0         0         0
         0         0         0         0         0         0         0         0
         0         0         0         0         0         0         0         0
         0         0         0         0         0         0         0         0
         0         0         0         0         0         0         0         0
         0         0         0         0         0         0         0         0
         0         0         0         0         0         0         0         0
         0         0         0         0         0         0         0         0
         0         0         0         0         0         0         0         0
         0         0         0         0         0         0         0         0
         0         0         0         0         0         0         0         0
         0         0         0         0         0         0         0         0
         0         0         0         0         0         0         0         0
         0         0         0         0         0         0         0         0
         0         0         0         0         0         0         0         0
         0         0         0         0         0         0         0         0
         0         0         0         0         0         0         0         0
         0         0         0         0         0         0         0         0
         0         0         0         0         0         0         0         0
         0         0         0         0         0         0         0         0
         0         0         0         0         0         0         0         0
         0         0         0         0         0         0         0         0
         0         0         0         0         0         0         0         0
         0         0         0         0         0         0         0         0
         0         0         0         0         0         0         0         0
         0         0         0         0         0         0         0         0
         0         0         0         0         0         0         0         0
         0         0         0         0         0         0         0         0
         0         0         0         0         0         0         0         0
         0         0         0         0         0         0         0         0
         0         0         0         0         0         0         0         0
         0         0         0         0         0         0         0         0
         0         0         0         0         0         0         0         0
         0         0         0         0         0         0         0         0
         0         0         0         0         0         0         0         0
         0         0         0         0         0         0         0         0
         0         0         0         0         0         0         0         0
         0         0         0         0         0         0         0         0
         0         0         0         0         0         0         0         0
         0         0         0         0         0         0         0         0
         0         0         0         0         0         0         0         0
         0         0         0         0         0         0         0         0
         0         0         0         0         0         0         0         0
         0         0         0         0         0         0         0         0
         0         0         0         0         0         0         0         0
         0         0         0         0         0         0         0         0
         0         0         0         0         0         0         0         0
         0         0         0         0         0         0         0         0
         0         0         0         0         0         0         0         0
         0         0         0         0         0         0         0         0
         0         0         0         0         0         0         0         0
         0         0         0         0         0         0         0         0
         0         0         0         0         0         0         0         0
         0         0         0         0         0         0         0         0
         0         0         0         0         0         0         0         0
         0         0         0         0         0         0         0         0
         0         0         0         0         0         0         0         0
         0         0         0         0         0         0         0         0
         0         0         0         0         0         0         0         0
         0         0         0         0         0         0         0         0
         0         0         0         0         0         0         0         0
         0         0         0         0         0         0         0         0
         0         0         0         0         0         0         0         0
         0         0         0         0         0         0         0         0
         0         0         0         0         0         0         0         0
         0         0         0         0         0         0         0         0
         0         0         0         0         0         0         0         0
         0         0         0         0         0         0         0         0
         0         0         0         0         0         0         0         0
         0         0         0         0         0         0         0         0
         0         0         0         0         0         0         0         0
         0         0         0         0         0         0         0         0
         0         0         0         0         0         0         0         0
         0         0         0         0         0         0         0         0
         0         0         0         0         0         0         0         0
         0         0         0         0         0         0         0         0
         0         0         0         0         0         0         0         0
         0         0         0         0         0         0         0         0
         0         0         0         0         0         0         0         0
         0         0         0         0         0         0         0         0
         0         0         0         0         0         0         0         0
         0         0         0         0         0         0         0         0
         0         0         0         0         0         0         0         0
         0         0         0         0         0         0         0         0
         0         0         0         0         0         0         0         0
         0         0         0         0         0         0         0         0
         0         0         0         0         0         0         0         0
         0         0         0         0         0         0         0         0
         0         0         0         0         0         0         0         0
         0         0         0         0         0         0         0         0
         0         0         0         0         0         0         0         0
         0         0         0         0         0         0         0         0
         0         0         0         0         0         0         0         0
         0         0         0         0         0         0         0         0
         0         0         0         0         0         0         0         0
         0         0         0         0         0         0         0         0
         0         0         0         0         0         0         0         0
         0         0         0         0         0         0         0         0
         0         0         0         0         0         0         0         0
         0         0         0         0         0         0         0         0
         0         0         0         0         0         0         0         0
         0         0         0         0         0         0         0         0
         0         0         0         0         0         0         0         0
         0         0         0         0         0         0         0         0
         0         0         0         0         0         0         0         0
         0         0         0         0         0         0         0         0
         0         0         0         0         0         0         0         0
         0         0         0         0         0         0         0         0
         0         0         0         0         0         0         0         0
         0         0         0         0         0         0         0         0
         0         0         0         0         0         0         0         0
         0         0         0         0         0         0         0         0
         0         0         0         0         0         0         0         0
         0         0         0         0         0         0         0         0
         0         0         0         0         0         0         0         0
         0         0         0         0         0         0         0         0
         0         0         0         0         0         0         0         0
         0         0         0         0         0         0         0         0
         0         0         0         0         0         0         0         0
         0         0         0         0         0         0         0         0
         0         0         0         0         0         0         0         0
         0         0         0         0         0         0         0         0
         0         0         0         0         0         0         0         0
         0         0         0         0         0         0         0         0
         0         0         0         0         0         0         0         0
         0         0         0         0         0         0         0         0
         0         0         0         0         0         0         0         0
         0         0         0         0         0         0         0         0
         0         0         0         0         0         0         0         0
         0         0         0         0         0         0         0         0
         0         0         0         0         0         0         0         0
         0         0         0         0         0         0         0         0
         0         0         0         0         0         0         0         0
         0         0         0         0         0         0         0         0
         0         0         0         0         0         0         0         0
         0         0         0         0         0         0         0         0
         0         0         0         0         0         0         0         0
         0         0         0         0         0         0         0         0
         0         0         0         0         0         0         0         0
         0         0         0         0         0         0         0         0
         0         0         0         0         0         0         0         0
         0         0         0         0         0         0         0         0
         0         0         0         0         0         0         0         0
         0         0         0         0         0         0         0         0
         0         0         0         0         0         0         0         0
         0         0         0         0         0         0         0         0
         0         0         0         0         0         0         0         0
         0         0         0         0         0         0         0         0
         0         0         0         0         0         0         0         0
         0         0         0         0         0         0         0         0
         0         0         0         0         0         0         0         0
         0         0         0         0         0         0         0         0
         0         0         0         0         0         0         0         0
         0         0         0         0         0         0         0         0
         0         0         0         0         0         0         0         0
         0         0         0         0         0         0         0         0
         0         0         0         0         0         0         0         0
         0         0         0         0         0         0         0         0
         0         0         0         0         0         0         0         0
         0         0         0         0         0         0         0         0
         0         0         0         0         0         0         0         0
         0         0         0         0         0         0         0         0
         0         0         0         0         0         0         0         0
         0         0         0         0         0         0         0         0
         0         0         0         0         0         0         0         0
         0         0         0         0         0         0         0         0
         0         0         0         0         0         0         0         0
         0         0         0         0         0         0         0         0
         0         0         0         0         0         0         0         0
         0         0         0         0         0         0         0         0
         0         0         0         0         0         0         0         0
         0         0         0         0         0         0         0         0
         0         0         0         0         0         0         0         0
         0         0         0         0         0         0         0         0
         0         0         0         0         0         0         0         0
         0         0         0         0         0         0         0         0
         0         0         0         0         0         0         0         0
         0         0         0         0         0         0         0         0
         0         0         0         0         0         0         0         0
         0         0         0         0         0         0         0         0
         0         0         0         0         0         0         0         0
         0         0         0         0         0         0         0         0
         0         0         0         0         0         0         0         0
         0         0         0         0         0         0         0         0
         0         0         0         0         0         0         0         0
         0         0         0         0         0         0         0         0
         0         0         0         0         0         0         0         0
         0         0         0         0         0         0         0         0
         0         0         0         0         0         0         0         0
         0         0         0         0         0         0         0         0
         0         0         0         0         0         0         0         0
         0         0         0         0         0         0         0         0
         0         0         0         0         0         0         0         0
         0         0         0         0         0         0         0         0
         0         0         0         0         0         0         0         0
         0         0         0         0         0         0         0         0
         0         0         0         0         0         0         0         0
         0         0         0         0         0         0         0         0
         0         0         0         0         0         0         0         0
         0         0         0         0         0         0         0         0
         0         0         0         0         0         0         0         0
         0         0         0         0         0         0         0         0
         0         0         0         0         0         0         0         0
         0         0         0         0         0         0         0         0
         0         0         0         0         0         0         0         0
         0         0         0         0         0         0         0         0
         0         0         0         0         0         0         0         0
         0         0         0         0         0         0         0         0
         0         0         0         0         0         0         0         0
         0         0         0         0         0         0         0         0
         0         0         0         0         0         0         0         0
         0         0         0         0         0         0         0         0
         0         0         0         0         0         0         0         0
         0         0         0         0         0         0         0         0
         0         0         0         0         0         0         0         0
         0         0         0         0         0         0         0         0
         0         0         0         0         0         0         0         0
         0         0         0         0         0         0         0         0
         0         0         0         0         0         0         0         0
         0         0         0         0         0         0         0         0
         0         0         0         0         0         0         0         0
         0         0         0         0         0         0         0         0
         0         0         0         0         0         0         0         0
         0         0         0         0         0         0         0         0
         0         0         0         0         0         0         0         0
         0         0         0         0         0         0         0         0
         0         0         0         0         0         0         0         0
         0         0         0         0         0         0         0         0
         0         0         0         0         0         0         0         0
         0         0         0         0         0         0         0         0
         0         0         0         0         0         0         0         0
         0         0         0         0         0         0         0         0
         0         0         0         0         0         0         0         0
         0         0         0         0         0         0         0         0
         0         0         0         0         0         0         0         0
         0         0         0         0         0         0         0         0
         0         0         0         0         0         0         0         0
         0         0         0         0         0         0         0         0
         0         0         0         0         0         0         0         0
         0         0         0         0         0         0         0         0
         0         0         0         0         0         0         0         0
         0         0         0         0         0         0         0         0
         0         0         0         0         0         0         0         0
         0         0         0         0         0         0         0         0
         0         0         0         0         0         0         0         0
         0         0         0         0         0         0         0         0
         0         0         0         0         0         0         0         0
         0         0         0         0         0         0         0         0
         0         0         0         0         0         0         0         0
         0         0         0         0         0         0         0         0
         0         0         0         0         0         0         0         0
         0         0         0         0         0         0         0         0
         0         0         0         0         0         0         0         0
         0         0         0         0         0         0         0         0
         0         0         0         0         0         0         0         0
         0         0         0         0         0         0         0         0
         0         0         0         0         0         0         0         0
         0         0         0         0         0         0         0         0
         0         0         0         0         0         0         0         0
         0         0         0         0         0         0         0         0
         0         0         0         0         0         0         0         0
         0         0         0         0         0         0         0         0
         0         0         0         0         0         0         0         0
         0         0         0         0         0         0         0         0
         0         0         0         0         0         0         0         0
         0         0         0         0         0         0         0         0
         0         0         0         0         0         0         0         0
         0         0         0         0         0         0         0         0
         0         0         0         0         0         0         0         0
         0         0         0         0         0         0         0         0
         0         0         0         0         0         0         0         0
         0         0         0         0         0         0         0         0
         0         0         0         0         0         0         0         0
         0         0         0         0         0         0         0         0
         0         0         0         0         0         0         0         0
         0         0         0         0         0         0         0         0
         0         0         0         0         0         0         0         0
         0         0         0         0         0         0         0         0
         0         0         0         0         0         0         0         0
         0         0         0         0         0         0         0         0
         0         0         0         0         0         0         0         0
         0         0         0         0         0         0         0         0
         0         0         0         0         0         0         0         0
         0         0         0         0         0         0         0         0
         0         0         0         0         0         0         0         0
         0         0         0         0         0         0         0         0
         0         0         0         0         0         0         0         0
         0         0         0         0         0         0         0         0
         0         0         0         0         0         0         0         0
         0         0         0         0         0         0         0         0
         0         0         0         0         0         0         0         0
         0         0         0         0         0         0         0         0
         0         0         0         0         0         0         0         0
         0         0         0         0         0         0         0         0
         0         0         0         0         0         0         0         0
         0         0         0         0         0         0         0         0
         0         0         0         0         0         0         0         0
         0         0         0         0         0         0         0         0
         0         0         0         0         0         0         0         0
         0         0         0         0         0         0         0         0
         0         0         0         0         0         0         0         0
         0         0         0         0         0         0         0         0
         0         0         0         0         0         0         0         0
         0         0         0         0         0         0         0         0
         0         0         0         0         0         0         0         0
         0         0         0         0         0         0         0         0
         0         0         0         0         0         0         0         0
         0         0         0         0         0         0         0         0
         0         0         0         0         0         0         0         0
         0         0         0         0         0         0         0         0
         0         0         0         0         0         0         0         0
         0         0         0         0         0         0         0         0
         0         0         0         0         0         0         0         0
         0         0         0         0         0         0         0         0
         0         0         0         0         0         0         0         0
         0         0         0         0         0         0         0         0
         0         0         0         0         0         0         0         0
         0         0         0         0         0         0         0         0
         0         0         0         0         0         0         0         0
         0         0         0         0         0         0         0         0
         0         0         0         0         0         0         0         0
         0         0         0         0         0         0         0         0
         0         0         0         0         0         0         0         0
         0         0         0         0         0         0         0         0
         0         0         0         0         0         0         0         0
         0         0         0         0         0         0         0         0
         0         0         0         0         0         0         0         0
         0         0         0         0         0         0         0         0
         0         0         0         0         0         0         0         0
         0         0         0         0         0         0         0         0
         0         0         0         0         0         0         0         0
         0         0         0         0         0         0         0         0
         0         0         0         0         0         0         0         0
         0         0         0         0         0         0         0         0
         0         0         0         0         0         0         0         0
         0         0         0         0         0         0         0         0
         0         0         0         0         0         0         0         0
         0         0         0         0         0         0         0         0
         0         0         0         0         0         0         0         0
         0         0         0         0         0         0         0         0
         0         0         0         0         0         0         0         0
         0         0         0         0         0         0         0         0
         0         0         0         0         0         0         0         0
         0         0         0         0         0         0         0         0
         0         0         0         0         0         0         0         0
         0         0         0         0         0         0         0         0
         0         0         0         0         0         0         0         0
         0         0         0         0         0         0         0         0
         0         0         0         0         0         0         0         0
         0         0         0         0         0         0         0         0
         0         0         0         0         0         0         0         0
         0         0         0         0         0         0         0         0
         0         0         0         0         0         0         0         0
         0         0         0         0         0         0         0         0
         0         0         0         0         0         0         0         0
         0         0         0         0         0         0         0         0
         0         0         0         0         0         0         0         0
         0         0         0         0         0         0         0         0
         0         0         0         0         0         0         0         0
         0         0         0         0         0         0         0         0
         0         0         0         0         0         0         0         0
         0         0         0         0         0         0         0         0
         0         0         0         0         0         0         0         0
         0         0         0
         0         0         0         0         0         0         0         0
         0         0         0         0         0         0         0         0
         0         0         0         0         0         0         0         0
         0         0         0         0         0         0         0         0
         0         0         0         0         0         0         0         0
         0         0         0         0         0         0         0         0
         0         0         0         0         0         0         0         0
         0         0         0         0         0         0         0         0
         0         0         0         0         0         0         0         0
         0         0         0         0         0         0         0         0
         0         0         0         0         0         0         0         0
         0         0         0         0         0         0         0         0
         0         0         0         0         0         0         0         0
         0         0         0         0         0         0         0         0
         0         0         0         0         0         0         0         0
         0         0         0         0         0         0         0         0
         0         0         0         0         0         0         0         0
         0         0         0         0         0         0         0         0
         0         0         0         0         0         0         0         0
         0         0         0         0         0         0         0         0
         0         0         0         0         0         0         0         0
         0         0         0         0         0         0         0         0
         0         0         0         0         0         0         0         0
         0         0         0         0         0         0         0         0
         0         0         0         0         0         0         0         0
         0         0         0         0         0         0         0         0
         0         0         0         0         0         0         0         0
         0         0         0         0         0         0         0         0
         0         0         0         0         0         0         0         0
         0         0         0         0         0         0         0         0
         0         0         0         0         0         0         0         0
         0         0         0         0         0         0         0         0
         0         0         0         0         0         0         0         0
         0         0         0         0         0         0         0         0
         0         0         0         0         0         0         0         0
         0         0         0         0         0         0         0         0
         0         0         0         0         0         0         0         0
         0         0         0         0         0         0         0         0
         0         0         0         0         0         0         0         0
         0         0         0         0         0         0         0         0
         0         0         0         0         0         0         0         0
         0         0         0         0         0         0         0         0
         0         0         0         0         0         0         0         0
         0         0         0         0         0         0         0         0
         0         0         0         0         0         0         0         0
         0         0         0         0         0         0         0         0
         0         0         0         0         0         0         0         0
         0         0         0         0         0         0         0         0
         0         0         0         0         0         0         0         0
         0         0         0         0         0         0         0         0
         0         0         0         0         0         0         0         0
         0         0         0         0         0         0         0         0
         0         0         0         0         0         0         0         0
         0         0         0         0         0         0         0         0
         0         0         0         0         0         0         0         0
         0         0         0         0         0         0         0         0
         0         0         0         0         0         0         0         0
         0         0         0         0         0         0         0         0
         0         0         0         0         0         0         0         0
         0         0         0         0         0         0         0         0
         0         0         0         0         0         0         0         0
         0         0         0         0         0         0         0         0
         0         0         0         0         0         0         0         0
         0         0         0         0         0         0         0         0
         0         0         0         0         0         0         0         0
         0         0         0         0         0         0         0         0
         0         0         0         0         0         0         0         0
         0         0         0         0         0         0         0         0
         0         0         0         0         0         0         0         0
         0         0         0         0         0         0         0         0
         0         0         0         0         0         0         0         0
         0         0         0         0         0         0         0         0
         0         0         0         0         0         0         0         0
         0         0         0         0         0         0         0         0
         0         0         0         0         0         0         0         0
         0         0         0         0         0         0         0         0
         0         0         0         0         0         0         0         0
         0         0         0         0         0         0         0         0
         0         0         0         0         0         0         0         0
         0         0         0         0         0         0         0         0
         0         0         0         0         0         0         0         0
         0         0         0         0         0         0         0         0
         0         0         0         0         0         0         0         0
         0         0         0         0         0         0         0         0
         0         0         0         0         0         0         0         0
         0         0         0         0         0         0         0         0
         0         0         0         0         0         0         0         0
         0         0         0         0         0         0         0         0
         0         0         0         0         0         0         0         0
         0         0         0         0         0         0         0         0
         0         0         0         0         0         0         0         0
         0         0         0         0         0         0         0         0
         0         0         0         0         0         0         0         0
         0         0         0         0         0         0         0         0
         0         0         0         0         0         0         0         0
         0         0         0         0         0         0         0         0
         0         0         0         0         0         0         0         0
         0         0         0         0         0         0         0         0
         0         0         0         0         0         0         0         0
         0         0         0         0         0         0         0         0
         0         0         0         0         0         0         0         0
         0         0         0         0         0         0         0         0
         0         0         0         0         0         0         0         0
         0         0         0         0         0         0         0         0
         0         0         0         0         0         0         0         0
         0         0         0         0         0         0         0         0
         0         0         0         0         0         0         0         0
         0         0         0         0         0         0         0         0
         0         0         0         0         0         0         0         0
         0         0         0         0         0         0         0         0
         0         0         0         0         0         0         0         0
         0         0         0         0         0         0         0         0
         0         0         0         0         0         0         0         0
         0         0         0         0         0         0         0         0
         0         0         0         0         0         0         0         0
         0         0         0         0         0         0         0         0
         0         0         0         0         0         0         0         0
         0         0         0         0         0         0         0         0
         0         0         0         0         0         0         0         0
         0         0         0         0         0         0         0         0
         0         0         0         0         0         0         0         0
         0         0         0         0         0         0         0         0
         0         0         0         0         0         0         0         0
         0         0         0         0         0         0         0         0
         0         0         0         0         0         0         0         0
         0         0         0         0         0         0         0         0
         0         0         0         0         0         0         0         0
         0         0         0         0         0         0         0         0
         0         0         0         0         0         0         0         0
         0         0         0         0         0         0         0         0
         0         0         0         0         0         0         0         0
         0         0         0         0         0         0         0         0
         0         0         0         0         0         0         0         0
         0         0         0         0         0         0         0         0
         0         0         0         0         0         0         0         0
         0         0         0         0         0         0         0         0
         0         0         0         0         0         0         0         0
         0         0         0         0         0         0         0         0
         0         0         0         0         0         0         0         0
         0         0         0         0         0         0         0         0
         0         0         0         0         0         0         0         0
         0         0         0         0         0         0         0         0
         0         0         0         0         0         0         0         0
         0         0         0         0         0         0         0         0
         0         0         0         0         0         0         0         0
         0         0         0         0         0         0         0         0
         0         0         0         0         0         0         0         0
         0         0         0         0         0         0         0         0
         0         0         0         0         0         0         0         0
         0         0         0         0         0         0         0         0
         0         0         0         0         0         0         0         0
         0         0         0         0         0         0         0         0
         0         0         0         0         0         0         0         0
         0         0         0         0         0         0         0         0
         0         0         0         0         0         0         0         0
         0         0         0         0         0         0         0         0
         0         0         0         0         0         0         0         0
         0         0         0         0         0         0         0         0
         0         0         0         0         0         0         0         0
         0         0         0         0         0         0         0         0
         0         0         0         0         0         0         0         0
         0         0         0         0         0         0         0         0
         0         0         0         0         0         0         0         0
         0         0         0         0         0         0         0         0
         0         0         0         0         0         0         0         0
         0         0         0         0         0         0         0         0
         0         0         0         0         0         0         0         0
         0         0         0         0         0         0         0         0
         0         0         0         0         0         0         0         0
         0         0         0         0         0         0         0         0
         0         0         0         0         0         0         0         0
         0         0         0         0         0         0         0         0
         0         0         0         0         0         0         0         0
         0         0         0         0         0         0         0         0
         0         0         0         0         0         0         0         0
         0         0         0         0         0         0         0         0
         0         0         0         0         0         0         0         0
         0         0         0         0         0         0         0         0
         0         0         0         0         0         0         0         0
         0         0         0         0         0         0         0         0
         0         0         0         0         0         0         0         0
         0         0         0         0         0         0         0         0
         0         0         0         0         0         0         0         0
         0         0         0         0         0         0         0         0
         0         0         0         0         0         0         0         0
         0         0         0         0         0         0         0         0
         0         0         0         0         0         0         0         0
         0         0         0         0         0         0         0         0
         0         0         0         0         0         0         0         0
         0         0         0         0         0         0         0         0
         0         0         0         0         0         0         0         0
         0         0         0         0         0         0         0         0
         0         0         0         0         0         0         0         0
         0         0         0         0         0         0         0         0
         0         0         0         0         0         0         0         0
         0         0         0         0         0         0         0         0
         0         0         0         0         0         0         0         0
         0         0         0         0         0         0         0         0
         0         0         0         0         0         0         0         0
         0         0         0         0         0         0         0         0
         0         0         0         0         0         0         0         0
         0         0         0         0         0         0         0         0
         0         0         0         0         0         0         0         0
         0         0         0         0         0         0         0         0
         0         0         0         0         0         0         0         0
         0         0         0         0         0         0         0         0
         0         0         0         0         0         0         0         0
         0         0         0         0         0         0         0         0
         0         0         0         0         0         0         0         0
         0         0         0         0         0         0         0         0
         0         0         0         0         0         0         0         0
         0         0         0         0         0         0         0         0
         0         0         0         0         0         0         0         0
         0         0         0         0         0         0         0         0
         0         0         0         0         0         0         0         0
         0         0         0         0         0         0         0         0
         0         0         0         0         0         0         0         0
         0         0         0         0         0         0         0         0
         0         0         0         0         0         0         0         0
         0         0         0         0         0         0         0         0
         0         0         0         0         0         0         0         0
         0         0         0         0         0         0         0         0
         0         0         0         0         0         0         0         0
         0         0         0         0         0         0         0         0
         0         0         0         0         0         0         0         0
         0         0         0         0         0         0         0         0
         0         0         0         0         0         0         0         0
         0         0         0         0         0         0         0         0
         0         0         0         0         0         0         0         0
         0         0         0         0         0         0         0         0
         0         0         0         0         0         0         0         0
         0         0         0         0         0         0         0         0
         0         0         0         0         0         0         0         0
         0         0         0         0         0         0         0         0
         0         0         0         0         0         0         0         0
         0         0         0         0         0         0         0         0
         0         0         0         0         0         0         0         0
         0         0         0         0         0         0         0         0
         0         0         0         0         0         0         0         0
         0         0         0         0         0         0         0         0
         0         0         0         0         0         0         0         0
         0         0         0         0         0         0         0         0
         0         0         0         0         0         0         0         0
         0         0         0         0         0         0         0         0
         0         0         0         0         0         0         0         0
         0         0         0         0         0         0         0         0
         0         0         0         0         0         0         0         0
         0         0         0         0         0         0         0         0
         0         0         0         0         0         0         0         0
         0         0         0         0         0         0         0         0
         0         0         0         0         0         0         0         0
         0         0         0         0         0         0         0         0
         0         0         0         0         0         0         0         0
         0         0         0         0         0         0         0         0
         0         0         0         0         0         0         0         0
         0         0         0         0         0         0         0         0
         0         0         0         0         0         0         0         0
         0         0         0         0         0         0         0         0
         0         0         0         0         0         0         0         0
         0         0         0         0         0         0         0         0
         0         0         0         0         0         0         0         0
         0         0         0         0         0         0         0         0
         0         0         0         0         0         0         0         0
         0         0         0         0         0         0         0         0
         0         0         0         0         0         0         0         0
         0         0         0         0         0         0         0         0
         0         0         0         0         0         0         0         0
         0         0         0         0         0         0         0         0
         0         0         0         0         0         0         0         0
         0         0         0         0         0         0         0         0
         0         0         0         0         0         0         0         0
         0         0         0         0         0         0         0         0
         0         0         0         0         0         0         0         0
         0         0         0         0         0         0         0         0
         0         0         0         0         0         0         0         0
         0         0         0         0         0         0         0         0
         0         0         0         0         0         0         0         0
         0         0         0         0         0         0         0         0
         0         0         0         0         0         0         0         0
         0         0         0         0         0         0         0         0
         0         0         0         0         0         0         0         0
         0         0         0         0         0         0         0         0
         0         0         0         0         0         0         0         0
         0         0         0         0         0         0         0         0
         0         0         0         0         0         0         0         0
         0         0         0         0         0         0         0         0
         0         0         0         0         0         0         0         0
         0         0         0         0         0         0         0         0
         0         0         0         0         0         0         0         0
         0         0         0         0         0         0         0         0
         0         0         0         0         0         0         0         0
         0         0         0         0         0         0         0         0
         0         0         0         0         0         0         0         0
         0         0         0         0         0         0         0         0
         0         0         0         0         0         0         0         0
         0         0         0         0         0         0         0         0
         0         0         0         0         0         0         0         0
         0         0         0         0         0         0         0         0
         0         0         0         0         0         0         0         0
         0         0         0         0         0         0         0         0
         0         0         0         0         0         0         0         0
         0         0         0         0         0         0         0         0
         0         0         0         0         0         0         0         0
         0         0         0         0         0         0         0         0
         0         0         0         0         0         0         0         0
         0         0         0         0         0         0         0         0
         0         0         0         0         0         0         0         0
         0         0         0         0         0         0         0         0
         0         0         0         0         0         0         0         0
         0         0         0         0         0         0         0         0
         0         0         0         0         0         0         0         0
         0         0         0         0         0         0         0         0
         0         0         0         0         0         0         0         0
         0         0         0         0         0         0         0         0
         0         0         0         0         0         0         0         0
         0         0         0         0         0         0         0         0
         0         0         0         0         0         0         0         0
         0         0         0         0         0         0         0         0
         0         0         0         0         0         0         0         0
         0         0         0         0         0         0         0         0
         0         0         0         0         0         0         0         0
         0         0         0         0         0         0         0         0
         0         0         0         0         0         0         0         0
         0         0         0         0         0         0         0         0
         0         0         0         0         0         0         0         0
         0         0         0         0         0         0         0         0
         0         0         0         0         0         0         0         0
         0         0         0         0         0         0         0         0
         0         0         0         0         0         0         0         0
         0         0         0         0         0         0         0         0
         0         0         0         0         0         0         0         0
         0         0         0         0         0         0         0         0
         0         0         0         0         0         0         0         0
         0         0         0         0         0         0         0         0
         0         0         0         0         0         0         0         0
         0         0         0         0         0         0         0         0
         0         0         0         0         0         0         0         0
         0         0         0         0         0         0         0         0
         0         0         0         0         0         0         0         0
         0         0         0         0         0         0         0         0
         0         0         0         0         0         0         0         0
         0         0         0         0         0         0         0         0
         0         0         0         0         0         0         0         0
         0         0         0         0         0         0         0         0
         0         0         0         0         0         0         0         0
         0         0         0         0         0         0         0         0
         0         0         0         0         0         0         0         0
         0         0         0         0         0         0         0         0
         0         0         0         0         0         0         0         0
         0         0         0         0         0         0         0         0
         0         0         0         0         0         0         0         0
         0         0         0         0         0         0         0         0
         0         0         0         0         0         0         0         0
         0         0         0         0         0         0         0         0
         0         0         0         0         0         0         0         0
         0         0         0         0         0         0         0         0
         0         0         0         0         0         0         0         0
         0         0         0         0         0         0         0         0
         0         0         0         0         0         0         0         0
         0         0         0         0         0         0         0         0
         0         0         0         0         0         0         0         0
         0         0         0         0         0         0         0         0
         0         0         0         0         0         0         0         0
         0         0         0         0         0         0         0         0
         0         0         0         0         0         0         0         0
         0         0         0         0         0         0         0         0
         0         0         0         0         0         0         0         0
         0         0         0         0         0         0         0         0
         0         0         0         0         0         0         0         0
         0         0         0         0         0         0         0         0
         0         0         0         0         0         0         0         0
         0         0         0         0         0         0         0         0
         0         0         0         0         0         0         0         0
         0         0         0         0         0         0         0         0
         0         0         0         0         0         0         0         0
         0         0         0         0         0         0         0         0
         0         0         0         0         0         0         0         0
         0         0         0         0         0         0         0         0
         0         0         0         0         0         0         0         0
         0         0         0         0         0         0         0         0
         0         0         0         0         0         0         0         0
         0         0         0         0         0         0         0         0
         0         0         0         0         0         0         0         0
         0         0         0         0         0         0         0         0
         0         0         0         0         0         0         0         0
         0         0         0         0         0         0         0         0
         0         0         0         0         0         0         0         0
         0         0         0         0         0         0         0         0
         0         0         0         0         0         0         0         0
         0         0         0         0         0         0         0         0
         0         0         0         0         0         0         0         0
         0         0         0         0         0         0         0         0
         0         0         0         0         0         0         0         0
         0         0         0         0         0         0         0         0
         0         0         0         0         0         0         0         0
         0         0         0         0         0         0         0         0
         0         0         0         0         0         0         0         0
         0         0         0         0         0         0         0         0
         0         0         0         0         0         0         0         0
         0         0         0         0         0         0         0         0
         0         0         0         0         0         0         0         0
         0         0         0         0         0         0         0         0
         0         0         0         0         0         0         0         0
         0         0         0         0         0         0         0         0
         0         0         0         0         0         0         0         0
         0         0         0         0         0         0         0         0
         0         0         0         0         0         0         0         0
         0         0         0         0         0         0         0         0
         0         0         0         0         0         0         0         0
         0         0         0         0         0         0         0         0
         0         0         0         0         0         0         0         0
         0         0         0         0         0         0         0         0
         0         0         0         0         0         0         0         0
         0         0         0         0         0         0         0         0
         0         0         0         0         0         0         0         0
         0         0         0         0         0         0         0         0
         0         0         0         0         0         0         0         0
         0         0         0         0         0         0         0         0
         0         0         0         0         0         0         0         0
         0         0         0         0         0         0         0         0
         0         0         0         0         0         0         0         0
         0         0         0         0         0         0         0         0
         0         0         0         0         0         0         0         0
         0         0         0         0         0         0         0         0
         0         0         0         0         0         0         0         0
         0         0         0         0         0         0         0         0
         0         0         0         0         0         0         0         0
         0         0         0         0         0         0         0         0
         0         0         0         0         0         0         0         0
         0         0         0         0         0         0         0         0
         0         0         0         0         0         0         0         0
         0         0         0         0         0         0         0         0
         0         0         0         0         0         0         0         0
         0         0         0         0         0         0         0         0
         0         0         0         0         0         0         0         0
         0         0         0         0         0         0         0         0
         0         0         0         0         0         0         0         0
         0         0         0         0         0         0         0         0
         0         0         0         0         0         0         0         0
         0         0         0         0         0         0         0         0
         0         0         0         0         0         0         0         0
         0         0         0         0         0         0         0         0
         0         0         0         0         0         0         0         0
         0         0         0         0         0         0         0         0
         0         0         0         0         0         0         0         0
         0         0         0         0         0         0         0         0
         0         0         0         0         0         0         0         0
         0         0         0         0         0         0         0         0
         0         0         0         0         0         0         0         0
         0         0         0         0         0         0         0         0
         0         0         0         0         0         0         0         0
         0         0         0         0         0         0         0         0
         0         0         0         0         0         0         0         0
         0         0         0         0         0         0         0         0
         0         0         0         0         0         0         0         0
         0         0         0         0         0         0         0         0
         0         0         0         0         0         0         0         0
         0         0         0         0         0         0         0         0
         0         0         0         0         0         0         0         0
         0         0         0         0         0         0         0         0
         0         0         0         0         0         0         0         0
         0         0         0         0         0         0         0         0
         0         0         0         0         0         0         0         0
         0         0         0         0         0         0         0         0
         0         0         0         0         0         0         0         0
         0         0         0         0         0         0         0         0
         0         0         0         0         0         0         0         0
         0         0         0         0         0         0         0         0
         0         0         0         0         0         0         0         0
         0         0         0         0         0         0         0         0
         0         0         0         0         0         0         0         0
         0         0         0         0         0         0         0         0
         0         0         0         0         0         0         0         0
         0         0         0         0         0         0         0         0
         0         0         0         0         0         0         0         0
         0         0         0         0         0         0         0         0
         0         0         0         0         0         0         0         0
         0         0         0         0         0         0         0         0
         0         0         0         0         0         0         0         0
         0         0         0         0         0         0         0         0
         0         0         0         0         0         0         0         0
         0         0         0         0         0         0         0         0
         0         0         0         0         0         0         0         0
         0         0         0         0         0         0         0         0
         0         0         0         0         0         0         0         0
         0         0         0         0         0         0         0         0
         0         0         0         0         0         0         0         0
         0         0         0         0         0         0         0         0
         0         0         0         0         0         0         0         0
         0         0         0         0         0         0         0         0
         0         0         0         0         0         0         0         0
         0         0         0         0         0         0         0         0
         0         0         0         0         0         0         0         0
         0         0         0         0         0         0         0         0
         0         0         0         0         0         0         0         0
         0         0         0         0         0         0         0         0
         0         0         0         0         0         0         0         0
         0         0         0         0         0         0         0         0
         0         0         0         0         0         0         0         0
         0         0         0         0         0         0         0         0
         0         0         0         0         0         0         0         0
         0         0         0         0         0         0         0         0
         0         0         0         0         0         0         0         0
         0         0         0         0         0         0         0         0
         0         0         0         0         0         0         0         0
         0         0         0         0         0         0         0         0
         0         0         0         0         0         0         0         0
         0         0         0         0         0         0         0         0
         0         0         0         0         0         0         0         0
         0         0         0         0         0         0         0         0
         0         0         0         0         0         0         0         0
         0         0         0         0         0         0         0         0
         0         0         0         0         0         0         0         0
         0         0         0         0         0         0         0         0
         0         0         0         0         0         0         0         0
         0         0         0         0         0         0         0         0
         0         0         0         0         0         0         0         0
         0         0         0         0         0         0         0         0
         0         0         0         0         0         0         0         0
         0         0         0         0         0         0         0         0
         0         0         0         0         0         0         0         0
         0         0         0         0         0         0         0         0
         0         0         0         0         0         0         0         0
         0         0         0         0         0         0         0         0
         0         0         0         0         0         0         0         0
         0         0         0         0         0         0         0         0
         0         0         0         0         0         0         0         0
         0         0         0         0         0         0         0         0
         0         0         0         0         0         0         0         0
         0         0         0         0         0         0         0         0
         0         0         0         0         0         0         0         0
         0         0         0         0         0         0         0         0
         0         0         0         0         0         0         0         0
         0         0         0         0         0         0         0         0
         0         0         0         0         0         0         0         0
         0         0         0         0         0         0         0         0
         0         0         0         0         0         0         0         0
         0         0         0         0         0         0         0         0
         0         0         0         0         0         0         0         0
         0         0         0         0         0         0         0         0
         0         0         0         0         0         0         0         0
         0         0         0         0         0         0         0         0
         0         0         0         0         0         0         0         0
         0         0         0         0         0         0         0         0
         0         0         0         0         0         0         0         0
         0         0         0         0         0         0         0         0
         0         0         0         0         0         0         0         0
         0         0         0         0         0         0         0         0
         0         0         0         0         0         0         0         0
         0         0         0         0         0         0         0         0
         0         0         0         0         0         0         0         0
         0         0         0         0         0         0         0         0
         0         0         0         0         0         0         0         0
         0         0         0         0         0         0         0         0
         0         0         0         0         0         0         0         0
         0         0         0         0         0         0         0         0
         0         0         0         0         0         0         0         0
         0         0         0         0         0         0         0         0
         0         0         0         0         0         0         0         0
         0         0         0         0         0         0         0         0
         0         0         0         0         0         0         0         0
         0         0         0         0         0         0         0         0
         0         0         0         0         0         0         0         0
         0         0         0         0         0         0         0         0
         0         0         0         0         0         0         0         0
         0         0         0         0         0         0         0         0
         0         0         0         0         0         0         0         0
         0         0         0         0         0         0         0         0
         0         0         0         0         0         0         0         0
         0         0         0         0         0         0         0         0
         0         0         0         0         0         0         0         0
         0         0         0         0         0         0         0         0
         0         0         0         0         0         0         0         0
         0         0         0         0         0         0         0         0
         0         0         0         0         0         0         0         0
         0         0         0         0         0         0         0         0
         0         0         0         0         0         0         0         0
         0         0         0         0         0         0         0         0
         0         0         0         0         0         0         0         0
         0         0         0         0         0         0         0         0
         0         0         0         0         0         0         0         0
         0         0         0         0         0         0         0         0
         0         0         0         0         0         0         0         0
         0         0         0         0         0         0         0         0
         0         0         0         0         0         0         0         0
         0         0         0         0         0         0         0         0
         0         0         0         0         0         0         0         0
         0         0         0         0         0         0         0         0
         0         0         0         0         0         0         0         0
         0         0         0         0         0         0         0         0
         0         0         0         0         0         0         0         0
         0         0         0         0         0         0         0         0
         0         0         0         0         0         0         0         0
         0         0         0         0         0         0         0         0
         0         0         0         0         0         0         0         0
         0         0         0         0         0         0         0         0
         0         0         0         0         0         0         0         0
         0         0         0         0         0         0         0         0
         0         0         0         0         0         0         0         0
         0         0         0         0         0         0         0         0
         0         0         0         0         0         0         0         0
         0         0         0         0         0         0         0         0
         0         0         0         0         0         0         0         0
         0         0         0         0         0         0         0         0
         0         0         0         0         0         0         0         0
         0         0         0         0         0         0         0         0
         0         0         0         0         0         0         0         0
         0         0         0         0         0         0         0         0
         0         0         0         0         0         0         0         0
         0         0         0         0         0         0         0         0
         0         0         0         0         0         0         0         0
         0         0         0         0         0         0         0         0
         0         0         0         0         0         0         0         0
         0         0         0         0         0         0         0         0
         0         0         0         0         0         0         0         0
         0         0         0         0         0         0         0         0
         0         0         0         0         0         0         0         0
         0         0         0         0         0         0         0         0
         0         0         0         0         0         0         0         0
         0         0         0         0         0         0         0         0
         0         0         0         0         0         0         0         0
         0         0         0         0         0         0         0         0
         0         0         0         0         0         0         0         0
         0         0         0         0         0         0         0         0
         0         0         0         0         0         0         0         0
         0         0         0         0         0         0         0         0
         0         0         0         0         0         0         0         0
         0         0         0         0         0         0         0         0
         0         0         0         0         0         0         0         0
         0         0         0         0         0         0         0         0
         0         0         0         0         0         0         0         0
         0         0         0         0         0         0         0         0
         0         0         0         0         0         0         0         0
         0         0         0         0         0         0         0         0
         0         0         0         0         0         0         0         0
         0         0         0         0         0         0         0         0
         0         0         0         0         0         0         0         0
         0         0         0         0         0         0         0         0
         0         0         0         0         0         0         0         0
         0         0         0         0         0         0         0         0
         0         0         0         0         0         0         0         0
         0         0         0         0         0         0         0         0
         0         0         0         0         0         0         0         0
         0         0         0         0         0         0         0         0
         0         0         0         0         0         0         0         0
         0         0         0         0         0         0         0         0
         0         0         0         0         0         0         0         0
         0         0         0         0         0         0         0         0
         0         0         0         0         0         0         0         0
         0         0         0         0         0         0         0         0
         0         0         0         0         0         0         0         0
         0         0         0         0         0         0         0         0
         0         0         0         0         0         0         0         0
         0         0         0         0         0         0         0         0
         0         0         0         0         0         0         0         0
         0         0         0         0         0         0         0         0
         0         0         0         0         0         0         0         0
         0         0         0         0         0         0         0         0
         0         0         0         0         0         0         0         0
         0         0         0         0         0         0         0         0
         0         0         0         0         0         0         0         0
         0         0         0         0         0         0         0         0
         0         0         0         0         0         0         0         0
         0         0         0         0         0         0         0         0
         0         0         0         0         0         0         0         0
         0         0         0         0         0         0         0         0
         0         0         0         0         0         0         0         0
         0         0         0         0         0         0         0         0
         0         0         0         0         0         0         0         0
         0         0         0         0         0         0         0         0
         0         0         0         0         0         0         0         0
         0         0         0         0         0         0         0         0
         0         0         0         0         0         0         0         0
         0         0         0         0         0         0         0         0
         0         0         0         0         0         0         0         0
         0         0         0         0         0         0         0         0
         0         0         0         0         0         0         0         0
         0         0         0         0         0         0         0         0
         0         0         0         0         0         0         0         0
         0         0         0         0         0         0         0         0
         0         0         0         0         0         0         0         0
         0         0         0         0         0         0         0         0
         0         0         0         0         0         0         0         0
         0         0         0         0         0         0         0         0
         0         0         0         0         0         0         0         0
         0         0         0         0         0         0         0         0
         0         0         0         0         0         0         0         0
         0         0         0         0         0         0         0         0
         0         0         0         0         0         0         0         0
         0         0         0         0         0         0         0         0
         0         0         0         0         0         0         0         0
         0         0         0         0         0         0         0         0
         0         0         0         0         0         0         0         0
         0         0         0         0         0         0         0         0
         0         0         0         0         0         0         0         0
         0         0         0         0         0         0         0         0
         0         0         0         0         0         0         0         0
         0         0         0         0         0         0         0         0
         0         0         0         0         0         0         0         0
         0         0         0         0         0         0         0         0
         0         0         0         0         0         0         0         0
         0         0         0         0         0         0         0         0
         0         0         0         0         0         0         0         0
         0         0         0         0         0         0         0         0
         0         0         0         0         0         0         0         0
         0         0         0         0         0         0         0         0
         0         0         0         0         0         0         0         0
         0         0         0         0         0         0         0         0
         0         0         0         0         0         0         0         0
         0         0         0         0         0         0         0         0
         0         0         0         0         0         0         0         0
         0         0         0         0         0         0         0         0
         0         0         0         0         0         0         0         0
         0         0         0         0         0         0         0         0
         0         0         0         0         0         0         0         0
         0         0         0         0         0         0         0         0
         0         0         0         0         0         0         0         0
         0         0         0         0         0         0         0         0
         0         0         0         0         0         0         0         0
         0         0         0         0         0         0         0         0
         0         0         0         0         0         0         0         0
         0         0         0         0         0         0         0         0
         0         0         0         0         0         0         0         0
         0         0         0         0         0         0         0         0
         0         0         0         0         0         0         0         0
         0         0         0         0         0         0         0         0
         0         0         0         0         0         0         0         0
         0         0         0         0         0         0         0         0
         0         0         0         0         0         0         0         0
         0         0         0         0         0         0         0         0
         0         0         0         0         0         0         0         0
         0         0         0         0         0         0         0         0
         0         0         0         0         0         0         0         0
         0         0         0         0         0         0         0         0
         0         0         0         0         0         0         0         0
         0         0         0         0         0         0         0         0
         0         0         0         0         0         0         0         0
         0         0         0         0         0         0         0         0
         0         0         0         0         0         0         0         0
         0         0         0         0         0         0         0         0
         0         0         0         0         0         0         0         0
         0         0         0         0         0         0         0         0
         0         0         0         0         0         0         0         0
         0         0         0         0         0         0         0         0
         0         0         0         0         0         0         0         0
         0         0         0         0         0         0         0         0
         0         0         0         0         0         0         0         0
         0         0         0         0         0         0         0         0
         0         0         0         0         0         0         0         0
         0         0         0         0         0         0         0         0
         0         0         0         0         0         0         0         0
         0         0         0         0         0         0         0         0
         0         0         0         0         0         0         0         0
         0         0         0         0         0         0         0         0
         0         0         0         0         0         0         0         0
         0         0         0         0         0         0         0         0
         0         0         0         0         0         0         0         0
         0         0         0         0         0         0         0         0
         0         0         0         0         0         0         0         0
         0         0         0         0         0         0         0         0
         0         0         0         0         0         0         0         0
         0         0         0         0         0         0         0         0
         0         0         0         0         0         0         0         0
         0         0         0         0         0         0         0         0
         0         0         0         0         0         0         0         0
         0         0         0         0         0         0         0         0
         0         0         0         0         0         0         0         0
         0         0         0         0         0         0         0         0
         0         0         0         0         0         0         0         0
         0         0         0         0         0         0         0         0
         0         0         0         0         0         0         0         0
         0         0         0         0         0         0         0         0
         0         0         0         0         0         0         0         0
         0         0         0         0         0         0         0         0
         0         0         0         0         0         0         0         0
         0         0         0         0         0         0         0         0
         0         0         0         0         0         0         0         0
         0         0         0         0         0         0         0         0
         0         0         0         0         0         0         0         0
         0         0         0         0         0         0         0         0
         0         0         0         0         0         0         0         0
         0         0         0         0         0         0         0         0
         0         0         0         0         0         0         0         0
         0         0         0         0         0         0         0         0
         0         0         0         0         0         0         0         0
         0         0         0         0         0         0         0         0
         0         0         0         0         0         0         0         0
         0         0         0         0         0         0         0         0
         0         0         0         0         0         0         0         0
         0         0         0         0         0         0         0         0
         0         0         0         0         0         0         0         0
         0         0         0         0         0         0         0         0
         0         0         0         0         0         0         0         0
         0         0         0         0         0         0         0         0
         0         0         0         0         0         0         0         0
         0         0         0         0         0         0         0         0
         0         0         0         0         0         0         0         0
         0         0         0         0         0         0         0         0
         0         0         0         0         0         0         0         0
         0         0         0         0         0         0         0         0
         0         0         0         0         0         0         0         0
         0         0         0         0         0         0         0         0
         0         0         0         0         0         0         0         0
         0         0         0         0         0         0         0         0
         0         0         0         0         0         0         0         0
         0         0         0         0         0         0         0         0
         0         0         0         0         0         0         0         0
         0         0         0         0         0         0         0         0
         0         0         0         0         0         0         0         0
         0         0         0         0         0         0         0         0
         0         0         0         0         0         0         0         0
         0         0         0         0         0         0         0         0
         0         0         0         0         0         0         0         0
         0         0         0         0         0         0         0         0
         0         0         0         0         0         0         0         0
         0         0         0         0         0         0         0         0
         0         0         0         0         0         0         0         0
         0         0         0         0         0         0         0         0
         0         0         0         0         0         0         0         0
         0         0         0         0         0         0         0         0
         0         0         0         0         0         0         0         0
         0         0         0         0         0         0         0         0
         0         0         0         0         0         0         0         0
         0         0         0         0         0         0         0         0
         0         0         0         0         0         0         0         0
         0         0         0         0         0         0         0         0
         0         0         0         0         0         0         0         0
         0         0         0         0         0         0         0         0
         0         0         0         0         0         0         0         0
         0         0         0         0         0         0         0         0
         0         0         0         0         0         0         0         0
         0         0         0         0         0         0         0         0
         0         0         0         0         0         0         0         0
         0         0         0         0         0         0         0         0
         0         0         0         0         0         0         0         0
         0         0         0         0         0         0         0         0
         0         0         0         0         0         0         0         0
         0         0         0         0         0         0         0         0
         0         0         0         0         0         0         0         0
         0         0         0         0         0         0         0         0
         0         0         0         0         0         0         0         0
         0         0         0         0         0         0         0         0
         0         0         0         0         0         0         0         0
         0         0         0         0         0         0         0         0
         0         0         0         0         0         0         0         0
         0         0         0         0         0         0         0         0
         0         0         0         0         0         0         0         0
         0         0         0         0         0         0         0         0
         0         0         0         0         0         0         0         0
         0         0         0         0         0         0         0         0
         0         0         0         0         0         0         0         0
         0         0         0         0         0         0         0         0
         0         0         0         0         0         0         0         0
         0         0         0         0         0         0         0         0
         0         0         0         0         0         0         0         0
         0         0         0         0         0         0         0         0
         0         0         0         0         0         0         0         0
         0         0         0         0         0         0         0         0
         0         0         0         0         0         0         0         0
         0         0         0         0         0         0         0         0
         0         0         0         0         0         0         0         0
         0         0         0         0         0         0         0         0
         0         0         0         0         0         0         0         0
         0         0         0         0         0         0         0         0
         0         0         0         0         0         0         0         0
         0         0         0         0         0         0         0         0
         0         0         0         0         0         0         0         0
         0         0         0         0         0         0         0         0
         0         0         0         0         0         0         0         0
         0         0         0         0         0         0         0         0
         0         0         0         0         0         0         0         0
         0         0         0         0         0         0         0         0
         0         0         0         0         0         0         0         0
         0         0         0         0         0         0         0         0
         0         0         0         0         0         0         0         0
         0         0         0         0         0         0         0         0
         0         0         0         0         0         0         0         0
         0         0         0         0         0         0         0         0
         0         0         0         0         0         0         0         0
         0         0         0         0         0         0         0         0
         0         0         0         0         0         0         0         0
         0         0         0         0         0         0         0         0
         0         0         0         0         0         0         0         0
         0         0         0         0         0         0         0         0
         0         0         0         0         0         0         0         0
         0         0         0         0         0         0         0         0
         0         0         0         0         0         0         0         0
         0         0         0         0         0         0         0         0
         0         0         0         0         0         0         0         0
         0         0         0         0         0         0         0         0
         0         0         0         0         0         0         0         0
         0         0         0         0         0         0         0         0
         0         0         0         0         0         0         0         0
         0         0         0         0         0         0         0         0
         0         0         0         0         0         0         0         0
         0         0         0         0         0         0         0         0
         0         0         0         0         0         0         0         0
         0         0         0         0         0         0         0         0
         0         0         0         0         0         0         0         0
         0         0         0         0         0         0         0         0
         0         0         0         0         0         0         0         0
         0         0         0         0         0         0         0         0
         0         0         0         0         0         0         0         0
         0         0         0         0         0         0         0         0
         0         0         0         0         0         0         0         0
         0         0         0         0         0         0         0         0
         0         0         0         0         0         0         0         0
         0         0         0         0         0         0         0         0
         0         0         0         0         0         0         0         0
         0         0         0         0         0         0         0         0
         0         0         0         0         0         0         0         0
         0         0         0         0         0         0         0         0
         0         0         0         0         0         0         0         0
         0         0         0         0         0         0         0         0
         0         0         0         0         0         0         0         0
         0         0         0         0         0         0         0         0
         0         0         0         0         0         0         0         0
         0         0         0         0         0         0         0         0
         0         0         0         0         0         0         0         0
         0         0         0         0         0         0         0         0
         0         0         0         0         0         0         0         0
         0         0         0         0         0         0         0         0
         0         0         0         0         0         0         0         0
         0         0         0         0         0         0         0         0
         0         0         0         0         0         0         0         0
         0         0         0         0         0         0         0         0
         0         0         0         0         0         0         0         0
         0         0         0         0         0         0         0         0
         0         0         0         0         0         0         0         0
         0         0         0         0         0         0         0         0
         0         0         0         0         0         0         0         0
         0         0         0         0         0         0         0         0
         0         0         0         0         0         0         0         0
         0         0         0         0         0         0         0         0
         0         0         0         0         0         0         0         0
         0         0         0         0         0         0         0         0
         0         0         0         0         0         0         0         0
         0         0         0         0         0         0         0         0
         0         0         0         0         0         0         0         0
         0         0         0         0         0         0         0         0
         0         0         0         0         0         0         0         0
         0         0         0         0         0         0         0         0
         0         0         0         0         0         0         0         0
         0         0         0         0         0         0         0         0
         0         0         0         0         0         0         0         0
         0         0         0         0         0         0         0         0
         0         0         0         0         0         0         0         0
         0         0         0         0         0         0         0         0
         0         0         0         0         0         0         0         0
         0         0         0         0         0         0         0         0
         0         0         0         0         0         0         0         0
         0         0         0         0         0         0         0         0
         0         0         0         0         0         0         0         0
         0         0         0         0         0         0         0         0
         0         0         0         0         0         0         0         0
         0         0         0         0         0         0         0         0
         0         0         0         0         0         0         0         0
         0         0         0         0         0         0         0         0
         0         0         0         0         0         0         0         0
         0         0         0         0         0         0         0         0
         0         0         0         0         0         0         0         0
         0         0         0         0         0         0         0         0
         0         0         0         0         0         0         0         0
         0         0         0         0         0         0         0         0
         0         0         0         0         0         0         0         0
         0         0         0         0         0         0         0         0
         0         0         0         0         0         0         0         0
         0         0         0         0         0         0         0         0
         0         0         0         0         0         0         0         0
         0         0         0         0         0         0         0         0
         0         0         0         0         0         0         0         0
         0         0         0         0         0         0         0         0
         0         0         0         0         0         0         0         0
         0         0         0         0         0         0         0         0
         0         0         0         0         0         0         0         0
         0         0         0         0         0         0         0         0
         0         0         0         0         0         0         0         0
         0         0         0         0         0         0         0         0
         0         0         0         0         0         0         0         0
         0         0         0         0         0         0         0         0
         0         0         0         0         0         0         0         0
         0         0         0         0         0         0         0         0
         0         0         0         0         0         0         0         0
         0         0         0         0         0         0         0         0
         0         0         0         0         0         0         0         0
         0         0         0         0         0         0         0         0
         0         0         0         0         0         0         0         0
         0         0         0         0         0         0         0         0
         0         0         0         0         0         0         0         0
         0         0         0         0         0         0         0         0
         0         0         0         0         0         0         0         0
         0         0         0         0         0         0         0         0
         0         0         0         0         0         0         0         0
         0         0         0         0         0         0         0         0
         0         0         0         0         0         0         0         0
         0         0         0         0         0         0         0         0
         0         0         0         0         0         0         0         0
         0         0         0         0         0         0         0         0
         0         0         0         0         0         0         0         0
         0         0         0         0         0         0         0         0
         0         0         0         0         0         0         0         0
         0         0         0         0         0         0         0         0
         0         0         0         0         0         0         0         0
         0         0         0         0         0         0         0         0
         0         0         0         0         0         0         0         0
         0         0         0         0         0         0         0         0
         0         0         0         0         0         0         0         0
         0         0         0         0         0         0         0         0
         0         0         0         0         0         0         0         0
         0         0         0         0         0         0         0         0
         0         0         0         0         0         0         0         0
         0         0         0         0         0         0         0         0
         0         0         0         0         0         0         0         0
         0         0         0         0         0         0         0         0
         0         0         0         0         0         0         0         0
         0         0         0         0         0         0         0         0
         0         0         0         0         0         0         0         0
         0         0         0         0         0         0         0         0
         0         0         0         0         0         0         0         0
         0         0         0         0         0         0         0         0
         0         0         0         0         0         0         0         0
         0         0         0         0         0         0         0         0
         0         0         0         0         0         0         0         0
         0         0         0         0         0         0         0         0
         0         0         0         0         0         0         0         0
         0         0         0         0         0         0         0         0
         0         0         0         0         0         0         0         0
         0         0         0         0         0         0         0         0
         0         0         0         0         0         0         0         0
         0         0         0         0         0         0         0         0
         0         0         0         0         0         0         0         0
         0         0         0         0         0         0         0         0
         0         0         0         0         0         0         0         0
         0         0         0         0         0         0         0         0
         0         0         0         0         0         0         0         0
         0         0         0         0         0         0         0         0
         0         0         0         0         0         0         0         0
         0         0         0         0         0         0         0         0
         0         0         0         0         0         0         0         0
         0         0         0         0         0         0         0         0
         0         0         0         0         0         0         0         0
         0         0         0         0         0         0         0         0
         0         0         0         0         0         0         0         0
         0         0         0         0         0         0         0         0
         0         0         0         0         0         0         0         0
         0         0         0         0         0         0         0         0
         0         0         0         0         0         0         0         0
         0         0         0         0         0         0         0         0
         0         0         0         0         0         0         0         0
         0         0         0         0         0         0         0         0
         0         0         0         0         0         0         0         0
         0         0         0         0         0         0         0         0
         0         0         0         0         0         0         0         0
         0         0         0         0         0         0         0         0
         0         0         0         0         0         0         0         0
         0         0         0         0         0         0         0         0
         0         0         0         0         0         0         0         0
         0         0         0         0         0         0         0         0
         0         0         0         0         0         0         0         0
         0         0         0         0         0         0         0         0
         0         0         0         0         0         0         0         0
         0         0         0         0         0         0         0         0
         0         0         0         0         0         0         0         0
         0         0         0         0         0         0         0         0
         0         0         0         0         0         0         0         0
         0         0         0         0         0         0         0         0
         0         0         0         0         0         0         0         0
         0         0         0         0         0         0         0         0
         0         0         0         0         0         0         0         0
         0         0         0         0         0         0         0         0
         0         0         0         0         0         0         0         0
         0         0         0         0         0         0         0         0
         0         0         0         0         0         0         0         0
         0         0         0         0         0         0         0         0
         0         0         0         0         0         0         0         0
         0         0         0         0         0         0         0         0
         0         0         0         0         0         0         0         0
         0         0         0         0         0         0         0         0
         0         0         0         0         0         0         0         0
         0         0         0         0         0         0         0         0
         0         0         0         0         0         0         0         0
         0         0         0         0         0         0         0         0
         0         0         0         0         0         0         0         0
         0         0         0         0         0         0         0         0
         0         0         0         0         0         0         0         0
         0         0         0         0         0         0         0         0
         0         0         0         0         0         0         0         0
         0         0         0         0         0         0         0         0
         0         0         0         0         0         0         0         0
         0         0         0         0         0         0         0         0
         0         0         0         0         0         0         0         0
         0         0         0         0         0         0         0         0
         0         0         0         0         0         0         0         0
         0         0         0         0         0         0         0         0
         0         0         0         0         0         0         0         0
         0         0         0         0         0         0         0         0
         0         0         0         0         0         0         0         0
         0         0         0         0         0         0         0         0
         0         0         0         0         0         0         0         0
         0         0         0         0         0         0         0         0
         0         0         0         0         0         0         0         0
         0         0         0         0         0         0         0         0
         0         0         0         0         0         0         0         0
         0         0         0         0         0         0         0         0
         0         0         0         0         0         0         0         0
         0         0         0         0         0         0         0         0
         0         0         0         0         0         0         0         0
         0         0         0         0         0         0         0         0
         0         0         0         0         0         0         0         0
         0         0         0         0         0         0         0         0
         0         0         0         0         0         0         0         0
         0         0         0         0         0         0         0         0
         0         0         0         0         0         0         0         0
         0         0         0         0         0         0         0         0
         0         0         0         0         0         0         0         0
         0         0         0         0         0         0         0         0
         0         0         0         0         0         0         0         0
         0         0         0         0         0         0         0         0
         0         0         0         0         0         0         0         0
         0         0         0         0         0         0         0         0
         0         0         0         0         0         0         0         0
         0         0         0         0         0         0         0         0
         0         0         0         0         0         0         0         0
         0         0         0         0         0         0         0         0
         0         0         0         0         0         0         0         0
         0         0         0         0         0         0         0         0
         0         0         0         0         0         0         0         0
         0         0         0         0         0         0         0         0
         0         0         0         0         0         0         0         0
         0         0         0         0         0         0         0         0
         0         0         0         0         0         0         0         0
         0         0         0         0         0         0         0         0
         0         0         0         0         0         0         0         0
         0         0         0         0         0         0         0         0
         0         0         0         0         0         0         0         0
         0         0         0         0         0         0         0         0
         0         0         0         0         0         0         0         0
         0         0         0         0         0         0         0         0
         0         0         0         0         0         0         0         0
         0         0         0         0         0         0         0         0
         0         0         0         0         0         0         0         0
         0         0         0         0         0         0         0         0
         0         0         0         0         0         0         0         0
         0         0         0         0         0         0         0         0
         0         0         0         0         0         0         0         0
         0         0         0         0         0         0         0         0
         0         0         0         0         0         0         0         0
         0         0         0         0         0         0         0         0
         0         0         0         0         0         0         0         0
         0         0         0         0         0         0         0         0
         0         0         0         0         0         0         0         0
         0         0         0         0         0         0         0         0
         0         0         0         0         0         0         0         0
         0         0         0         0         0         0         0         0
         0         0         0         0         0         0         0         0
         0         0         0         0         0         0         0         0
         0         0         0         0         0         0         0         0
         0         0         0         0         0         0         0         0
         0         0         0         0         0         0         0         0
         0         0         0         0         0         0         0         0
         0         0         0         0         0         0         0         0
         0         0         0         0         0         0         0         0
         0         0         0         0         0         0         0         0
         0         0         0         0         0         0         0         0
         0         0         0         0         0         0         0         0
         0         0         0         0         0         0         0         0
         0         0         0         0         0         0         0         0
         0         0         0         0         0         0         0         0
         0         0         0         0         0         0         0         0
         0         0         0         0         0         0         0         0
         0         0         0         0         0         0         0         0
         0         0         0         0         0         0         0         0
         0         0         0         0         0         0         0         0
         0         0         0         0         0         0         0         0
         0         0         0         0         0         0         0         0
         0         0         0         0         0         0         0         0
         0         0         0         0         0         0         0         0
         0         0         0         0         0         0         0         0
         0         0         0         0         0         0         0         0
         0         0         0         0         0         0         0         0
         0         0         0         0         0         0         0         0
         0         0         0         0         0         0         0         0
         0         0         0         0         0         0         0         0
         0         0         0         0         0         0         0         0
         0         0         0         0         0         0         0         0
         0         0         0         0         0         0         0         0
         0         0         0         0         0         0         0         0
         0         0         0         0         0         0         0         0
         0         0         0         0         0         0         0         0
         0         0         0         0         0         0         0         0
         0         0         0         0         0         0         0         0
         0         0         0         0         0         0         0         0
         0         0         0         0         0         0         0         0
         0         0         0         0         0         0         0         0
         0         0         0         0         0         0         0         0
         0         0         0         0         0         0         0         0
         0         0         0         0         0         0         0         0
         0         0         0         0         0         0         0         0
         0         0         0         0         0         0         0         0
         0         0         0         0         0         0         0         0
         0         0         0         0         0         0         0         0
         0         0         0         0         0         0         0         0
         0         0         0         0         0         0         0         0
         0         0         0         0         0         0         0         0
         0         0         0         0         0         0         0         0
         0         0         0         0         0         0         0         0
         0         0         0         0         0         0         0         0
         0         0         0         0         0         0         0         0
         0         0         0         0         0         0         0         0
         0         0         0         0         0         0         0         0
         0         0         0         0         0         0         0         0
         0         0         0         0         0         0         0         0
         0         0         0         0         0         0         0         0
         0         0         0         0         0         0         0         0
         0         0         0         0         0         0         0         0
         0         0         0         0         0         0         0         0
         0         0         0         0         0         0         0         0
         0         0         0         0         0         0         0         0
         0         0         0         0         0         0         0         0
         0         0         0         0         0         0         0         0
         0         0         0         0         0         0         0         0
         0         0         0         0         0         0         0         0
         0         0         0         0         0         0         0         0
         0         0         0         0         0         0         0         0
         0         0         0         0         0         0         0         0
         0         0         0         0         0         0         0         0
         0         0         0         0         0         0         0         0
         0         0         0         0         0         0         0         0
         0         0         0         0         0         0         0         0
         0         0         0         0         0         0         0         0
         0         0         0         0         0         0         0         0
         0         0         0         0         0         0         0         0
         0         0         0         0         0         0         0         0
         0         0         0         0         0         0         0         0
         0         0         0         0         0         0         0         0
         0         0         0         0         0         0         0         0
         0         0         0         0         0         0         0         0
         0         0         0         0         0         0         0         0
         0         0         0         0         0         0         0         0
         0         0         0         0         0         0         0         0
         0         0         0         0         0         0         0         0
         0         0         0         0         0         0         0         0
         0         0         0         0         0         0         0         0
         0         0         0         0         0         0         0         0
         0         0         0         0         0         0         0         0
         0         0         0         0         0         0         0         0
         0         0         0         0         0         0         0         0
         0         0         0         0         0         0         0         0
         0         0         0         0         0         0         0         0
         0         0         0         0         0         0         0         0
         0         0         0         0         0         0         0         0
         0         0         0         0         0         0         0         0
         0         0         0         0         0         0         0         0
         0         0         0         0         0         0         0         0
         0         0         0         0         0         0         0         0
         0         0         0         0         0         0         0         0
         0         0         0         0         0         0         0         0
         0         0         0         0         0         0         0         0
         0         0         0         0         0         0         0         0
         0         0         0         0         0         0         0         0
         0         0         0         0         0         0         0         0
         0         0         0         0         0         0         0         0
         0         0         0         0         0         0         0         0
         0         0         0         0         0         0         0         0
         0         0         0         0         0         0         0         0
         0         0         0         0         0         0         0         0
         0         0         0         0         0         0         0         0
         0         0         0         0         0         0         0         0
         0         0         0         0         0         0         0         0
         0         0         0         0         0         0         0         0
         0         0         0         0         0         0         0         0
         0         0         0         0         0         0         0         0
         0         0         0         0         0         0         0         0
         0         0         0         0         0         0         0         0
         0         0         0         0         0         0         0         0
         0         0         0         0         0         0         0         0
         0         0         0         0         0         0         0         0
         0         0         0         0         0         0         0         0
         0         0         0         0         0         0         0         0
         0         0         0         0         0         0         0         0
         0         0         0         0         0         0         0         0
         0         0         0         0         0         0         0         0
         0         0         0         0         0         0         0         0
         0         0         0         0         0         0         0         0
         0         0         0         0         0         0         0         0
         0         0         0         0         0         0         0         0
         0         0         0         0         0         0         0         0
         0         0         0         0         0         0         0         0
         0         0         0         0         0         0         0         0
         0         0         0         0         0         0         0         0
         0         0         0         0         0         0         0         0
         0         0         0         0         0         0         0         0
         0         0         0         0         0         0         0         0
         0         0         0         0         0         0         0         0
         0         0         0         0         0         0         0         0
         0         0         0         0         0         0         0         0
         0         0         0         0         0         0         0         0
         0         0         0         0         0         0         0         0
         0         0         0         0         0         0         0         0
         0         0         0         0         0         0         0         0
         0         0         0         0         0         0         0         0
         0         0         0         0         0         0         0         0
         0         0         0         0         0         0         0         0
         0         0         0         0         0         0         0         0
         0         0         0         0         0         0         0         0
         0         0         0         0         0         0         0         0
         0         0         0         0         0         0         0         0
         0         0         0         0         0         0         0         0
         0         0         0         0         0         0         0         0
         0         0         0         0         0         0         0         0
         0         0         0         0         0         0         0         0
         0         0         0         0         0         0         0         0
         0         0         0         0         0         0         0         0
         0         0         0         0         0         0         0         0
         0         0         0         0         0         0         0         0
         0         0         0         0         0         0         0         0
         0         0         0         0         0         0         0         0
         0         0         0         0         0         0         0         0
         0         0         0         0         0         0         0         0
         0         0         0         0         0         0         0         0
         0         0         0         0         0         0         0         0
         0         0         0         0         0         0         0         0
         0         0         0         0         0         0         0         0
         0         0         0         0         0         0         0         0
         0         0         0         0         0         0         0         0
         0         0         0         0         0         0         0         0
         0         0         0         0         0         0         0         0
         0         0         0         0         0         0         0         0
         0         0         0         0         0         0         0         0
         0         0         0         0         0         0         0         0
         0         0         0         0         0         0         0         0
         0         0         0         0         0         0         0         0
         0         0         0         0         0         0         0         0
         0         0         0         0         0         0         0         0
         0         0         0         0         0         0         0         0
         0         0         0         0         0         0         0         0
         0         0         0         0         0         0         0         0
         0         0         0         0         0         0         0         0
         0         0         0         0         0         0         0         0
         0         0         0         0         0         0         0         0
         0         0         0         0         0         0         0         0
         0         0         0         0         0         0         0         0
         0         0         0         0         0         0         0         0
         0         0         0         0         0         0         0         0
         0         0         0         0         0         0         0         0
         0         0         0         0         0         0         0         0
         0         0         0         0         0         0         0         0
         0         0         0         0         0         0         0         0
         0         0         0         0         0         0         0         0
         0         0         0         0         0         0         0         0
         0         0         0         0         0         0         0         0
         0         0         0         0         0         0         0         0
         0         0         0         0         0         0         0         0
         0         0         0         0         0         0         0         0
         0         0         0         0         0         0         0         0
         0         0         0         0         0         0         0         0
         0         0         0         0         0         0         0         0
         0         0         0         0         0         0         0         0
         0         0         0         0         0         0         0         0
         0         0         0         0         0         0         0         0
         0         0         0         0         0         0         0         0
         0         0         0         0         0         0         0         0
         0         0         0         0         0         0         0         0
         0         0         0         0         0         0         0         0
         0         0         0         0         0         0         0         0
         0         0         0         0         0         0         0         0
         0         0         0         0         0         0         0         0
         0         0         0         0         0         0         0         0
         0         0         0         0         0         0         0         0
         0         0         0         0         0         0         0         0
         0         0         0         0         0         0         0         0
         0         0         0         0         0         0         0         0
         0         0         0         0         0         0         0         0
         0         0         0         0         0         0         0         0
         0         0         0         0         0         0         0         0
         0         0         0         0         0         0         0         0
         0         0         0         0         0         0         0         0
         0         0         0         0         0         0         0         0
         0         0         0         0         0         0         0         0
         0         0         0         0         0         0         0         0
         0         0         0         0         0         0         0         0
         0         0         0         0         0         0         0         0
         0         0         0         0         0         0         0         0
         0         0         0         0         0         0         0         0
         0         0         0         0         0         0         0         0
         0         0         0         0         0         0         0         0
         0         0         0         0         0         0         0         0
         0         0         0         0         0         0         0         0
         0         0         0         0         0         0         0         0
         0         0         0         0         0         0         0         0
         0         0         0         0         0         0         0         0
         0         0         0         0         0         0         0         0
         0         0         0         0         0         0         0         0
         0         0         0         0         0         0         0         0
         0         0         0         0         0         0         0         0
         0         0         0         0         0         0         0         0
         0         0         0         0         0         0         0         0
         0         0         0         0         0         0         0         0
         0         0         0         0         0         0         0         0
         0         0         0         0         0         0         0         0
         0         0         0         0         0         0         0         0
         0         0         0         0         0         0         0         0
         0         0         0         0         0         0         0         0
         0         0         0         0         0         0         0         0
         0         0         0         0         0         0         0         0
         0         0         0         0         0         0         0         0
         0         0         0         0         0         0         0         0
         0         0         0         0         0         0         0         0
         0         0         0         0         0         0         0         0
         0         0         0         0         0         0         0         0
         0         0         0         0         0         0         0         0
         0         0         0         0         0         0         0         0
         0         0         0         0         0         0         0         0
         0         0         0         0         0         0         0         0
         0         0         0         0         0         0         0         0
         0         0         0         0         0         0         0         0
         0         0         0         0         0         0         0         0
         0         0         0         0         0         0         0         0
         0         0         0         0         0         0         0         0
         0         0         0         0         0         0         0         0
         0         0         0         0         0         0         0         0
         0         0         0         0         0         0         0         0
         0         0         0         0         0         0         0         0
         0         0         0         0         0         0         0         0
         0         0         0         0         0         0         0         0
         0         0         0         0         0         0         0         0
         0         0         0         0         0         0         0         0
         0         0         0         0         0         0         0         0
         0         0         0         0         0         0         0         0
         0         0         0         0         0         0         0         0
         0         0         0         0         0         0         0         0
         0         0         0         0         0         0         0         0
         0         0         0         0         0         0         0         0
         0         0         0         0         0         0         0         0
         0         0         0         0         0         0         0         0
         0         0         0         0         0         0         0         0
         0         0         0         0         0         0         0         0
         0         0         0         0         0         0         0         0
         0         0         0         0         0         0         0         0
         0         0         0         0         0         0         0         0
         0         0         0         0         0         0         0         0
         0         0         0         0         0         0         0         0
         0         0         0         0         0         0         0         0
         0         0         0         0         0         0         0         0
         0         0         0         0         0         0         0         0
         0         0         0         0         0         0         0         0
         0         0         0         0         0         0         0         0
         0         0         0         0         0         0         0         0
         0         0         0         0         0         0         0         0
         0         0         0         0         0         0         0         0
         0         0         0         0         0         0         0         0
         0         0         0         0         0         0         0         0
         0         0         0         0         0         0         0         0
         0         0         0         0         0         0         0         0
         0         0         0         0         0         0         0         0
         0         0         0         0         0         0         0         0
         0         0         0         0         0         0         0         0
         0         0         0         0         0         0         0         0
         0         0         0         0         0         0         0         0
         0         0         0         0         0         0         0         0
         0         0         0         0         0         0         0         0
         0         0         0         0         0         0         0         0
         0         0         0         0         0         0         0         0
         0         0         0         0         0         0         0         0
         0         0         0         0         0         0         0         0
         0         0         0         0         0         0         0         0
         0         0         0         0         0         0         0         0
         0         0         0         0         0         0         0         0
         0         0         0         0         0         0         0         0
         0         0         0         0         0         0         0         0
         0         0         0         0         0         0         0         0
         0         0         0         0         0         0         0         0
         0         0         0         0         0         0         0         0
         0         0         0         0         0         0         0         0
         0         0         0         0         0         0         0         0
         0         0         0         0         0         0         0         0
         0         0         0         0         0         0         0         0
         0         0         0         0         0         0         0         0
         0         0         0         0         0         0         0         0
         0         0         0         0         0         0         0         0
         0         0         0         0         0         0         0         0
         0         0         0         0         0         0         0         0
         0         0         0         0         0         0         0         0
         0         0         0         0         0         0         0         0
         0         0         0         0         0         0         0         0
         0         0         0         0         0         0         0         0
         0         0         0         0         0         0         0         0
         0         0         0         0         0         0         0         0
         0         0         0         0         0         0         0         0
         0         0         0         0         0         0         0         0
         0         0         0         0         0         0         0         0
         0         0         0         0         0         0         0         0
         0         0         0         0         0         0         0         0
         0         0         0         0         0         0         0         0
         0         0         0         0         0         0         0         0
         0         0         0         0         0         0         0         0
         0         0         0         0         0         0         0         0
         0         0         0         0         0         0         0         0
         0         0         0         0         0         0         0         0
         0         0         0         0         0         0         0         0
         0         0         0         0         0         0         0         0
         0         0         0         0         0         0         0         0
         0         0         0         0         0         0         0         0
         0         0         0         0         0         0         0         0
         0         0         0         0         0         0         0         0
         0         0         0         0         0         0         0         0
         0         0         0         0         0         0         0         0
         0         0         0         0         0         0         0         0
         0         0         0         0         0         0         0         0
         0         0         0         0         0         0         0         0
         0         0         0         0         0         0         0         0
         0         0         0         0         0         0         0         0
         0         0         0         0         0         0         0         0
         0         0         0         0         0         0         0         0
         0         0         0         0         0         0         0         0
         0         0         0         0         0         0         0         0
         0         0         0         0         0         0         0         0
         0         0         0         0         0         0         0         0
         0         0         0         0         0         0         0         0
         0         0         0         0         0         0         0         0
         0         0         0         0         0         0         0         0
         0         0         0         0         0         0         0         0
         0         0         0         0         0         0         0         0
         0         0         0         0         0         0         0         0
         0         0         0         0         0         0         0         0
         0         0         0         0         0         0         0         0
         0         0         0         0         0         0         0         0
         0         0         0         0         0         0         0         0
         0         0         0         0         0         0         0         0
         0         0         0         0         0         0         0         0
         0         0         0         0         0         0         0         0
         0         0         0         0         0         0         0         0
         0         0         0         0         0         0         0         0
         0         0         0         0         0         0         0         0
         0         0         0         0         0         0         0         0
         0         0         0         0         0         0         0         0
         0         0         0         0         0         0         0         0
         0         0         0         0         0         0         0         0
         0         0         0         0         0         0         0         0
         0         0         0         0         0         0         0         0
         0         0         0         0         0         0         0         0
         0         0         0         0         0         0         0         0
         0         0         0         0         0         0         0         0
         0         0         0         0         0         0         0         0
         0         0         0         0         0         0         0         0
         0         0         0         0         0         0         0         0
         0         0         0         0         0         0         0         0
         0         0         0         0         0         0         0         0
         0         0         0         0         0         0         0         0
         0         0         0         0         0         0         0         0
         0         0         0         0         0         0         0         0
         0         0         0         0         0         0         0         0
         0         0         0         0         0         0         0         0
         0         0         0         0         0         0         0         0
         0         0         0         0         0         0         0         0
         0         0         0         0         0         0         0         0
         0         0         0         0         0         0         0         0
         0         0         0         0         0         0         0         0
         0         0         0         0         0         0         0         0
         0         0         0         0         0         0         0         0
         0         0         0         0         0         0         0         0
         0         0         0         0         0         0         0         0
         0         0         0         0         0         0         0         0
         0         0         0         0         0         0         0         0
         0         0         0         0         0         0         0         0
         0         0         0         0         0         0         0         0
         0         0         0         0         0         0         0         0
         0         0         0         0         0         0         0         0
         0         0         0         0         0         0         0         0
         0         0         0         0         0         0         0         0
         0         0         0         0         0         0         0         0
         0         0         0         0         0         0         0         0
         0         0         0         0         0         0         0         0
         0         0         0         0         0         0         0         0
         0         0         0         0         0         0         0         0
         0         0         0         0         0         0         0         0
         0         0         0         0         0         0         0         0
         0         0         0         0         0         0         0         0
         0         0         0         0         0         0         0         0
         0         0         0         0         0         0         0         0
         0         0         0         0         0         0         0         0
         0         0         0         0         0         0         0         0
         0         0         0         0         0         0         0         0
         0         0         0         0         0         0         0         0
         0         0         0         0         0         0         0         0
         0         0         0         0         0         0         0         0
         0         0         0         0         0         0         0         0
         0         0         0         0         0         0         0         0
         0         0         0         0         0         0         0         0
         0         0         0         0         0         0         0         0
         0         0         0         0         0         0         0         0
         0         0         0         0         0         0         0         0
         0         0         0         0         0         0         0         0
         0         0         0         0         0         0         0         0
         0         0         0         0         0         0         0         0
         0         0         0         0         0         0         0         0
         0         0         0         0         0         0         0         0
         0         0         0         0         0         0         0         0
         0         0         0         0         0         0         0         0
         0         0         0         0         0         0         0         0
         0         0         0         0         0         0         0         0
         0         0         0         0         0         0         0         0
         0         0         0         0         0         0         0         0
         0         0         0         0         0         0         0         0
         0         0         0         0         0         0         0         0
         0         0         0         0         0         0         0         0
         0         0         0         0         0         0         0         0
         0         0         0         0         0         0         0         0
         0         0         0         0         0         0         0         0
         0         0         0         0         0         0         0         0
         0         0         0         0         0         0         0         0
         0         0         0         0         0         0         0         0
         0         0         0         0         0         0         0         0
         0         0         0         0         0         0         0         0
         0         0         0         0         0         0         0         0
         0         0         0         0         0         0         0         0
         0         0         0         0         0         0         0         0
         0         0         0         0         0         0         0         0
         0         0         0         0         0         0         0         0
         0         0         0         0         0         0         0         0
         0         0         0         0         0         0         0         0
         0         0         0         0         0         0         0         0
         0         0         0         0         0         0         0         0
         0         0         0         0         0         0         0         0
         0         0         0         0         0         0         0         0
         0         0         0         0         0         0         0         0
         0         0         0         0         0         0         0         0
         0         0         0         0         0         0         0         0
         0         0         0         0         0         0         0         0
         0         0         0         0         0         0         0         0
         0         0         0         0         0         0         0         0
         0         0         0         0         0         0         0         0
         0         0         0         0         0         0         0         0
         0         0         0         0         0         0         0         0
         0         0         0         0         0         0         0         0
         0         0         0         0         0         0         0         0
         0         0         0         0         0         0         0         0
         0         0         0         0         0         0         0         0
         0         0         0         0         0         0         0         0
         0         0         0         0         0         0         0         0
         0         0         0         0         0         0         0         0
         0         0         0         0         0         0         0         0
         0         0         0         0         0         0         0         0
         0         0         0         0         0         0         0         0
         0         0         0         0         0         0         0         0
         0         0         0         0         0         0         0         0
         0         0         0         0         0         0         0         0
         0         0         0         0         0         0         0         0
         0         0         0         0         0         0         0         0
         0         0         0         0         0         0         0         0
         0         0         0         0         0         0         0         0
         0         0         0         0         0         0         0         0
         0         0         0         0         0         0         0         0
         0         0         0         0         0         0         0         0
         0         0         0         0         0         0         0         0
         0         0         0         0         0         0         0         0
         0         0         0         0         0         0         0         0
         0         0         0         0         0         0         0         0
         0         0         0         0         0         0         0         0
         0         0         0         0         0         0         0         0
         0         0         0         0         0         0         0         0
         0         0         0         0         0         0         0         0
         0         0         0         0         0         0         0         0
         0         0         0         0         0         0         0         0
         0         0         0         0         0         0         0         0
         0         0         0         0         0         0         0         0
         0         0         0         0         0         0         0         0
         0         0         0         0         0         0         0         0
         0         0         0         0         0         0         0         0
         0         0         0         0         0         0         0         0
         0         0         0         0         0         0         0         0
         0         0         0         0         0         0         0         0
         0         0         0         0         0         0         0         0
         0         0         0         0         0         0         0         0
         0         0         0         0         0         0         0         0
         0         0         0         0         0         0         0         0
         0         0         0         0         0         0         0         0
         0         0         0         0         0         0         0         0
         0         0         0         0         0         0         0         0
         0         0         0         0         0         0         0         0
         0         0         0         0         0         0         0         0
         0         0         0         0         0         0         0         0
         0         0         0         0         0         0         0         0
         0         0         0         0         0         0         0         0
         0         0         0         0         0         0         0         0
         0         0         0         0         0         0         0         0
         0         0         0         0         0         0         0         0
         0         0         0         0         0         0         0         0
         0         0         0         0         0         0         0         0
         0         0         0         0         0         0         0         0
         0         0         0         0         0         0         0         0
         0         0         0         0         0         0         0         0
         0         0         0         0         0         0         0         0
         0         0         0         0         0         0         0         0
         0         0         0         0         0         0         0         0
         0         0         0         0         0         0         0         0
         0         0         0         0         0         0         0         0
         0         0         0         0         0         0         0         0
         0         0         0         0         0         0         0         0
         0         0         0         0         0         0         0         0
         0         0         0         0         0         0         0         0
         0         0         0         0         0         0         0         0
         0         0         0         0         0         0         0         0
         0         0         0         0         0         0         0         0
         0         0         0         0         0         0         0         0
         0         0         0         0         0         0         0         0
         0         0         0         0         0         0         0         0
         0         0         0         0         0         0         0         0
         0         0         0         0         0         0         0         0
         0         0         0         0         0         0         0         0
         0         0         0         0         0         0         0         0
         0         0         0         0         0         0         0         0
         0         0         0         0         0         0         0         0
         0         0         0         0         0         0         0         0
         0         0         0         0         0         0         0         0
         0         0         0         0         0         0         0         0
         0         0         0         0         0         0         0         0
         0         0         0         0         0         0         0         0
         0         0         0         0         0         0         0         0
         0         0         0         0         0         0         0         0
         0         0         0         0         0         0         0         0
         0         0         0         0         0         0         0         0
         0         0         0         0         0         0         0         0
         0         0         0         0         0         0         0         0
         0         0         0         0         0         0         0         0
         0         0         0         0         0         0         0         0
         0         0         0         0         0         0         0         0
         0         0         0         0         0         0         0         0
         0         0         0         0         0         0         0         0
         0         0         0         0         0         0         0         0
         0         0         0         0         0         0         0         0
         0         0         0         0         0         0         0         0
         0         0         0         0         0         0         0         0
         0         0         0         0         0         0         0         0
         0         0         0         0         0         0         0         0
         0         0         0         0         0         0         0         0
         0         0         0         0         0         0         0         0
         0         0         0         0         0         0         0         0
         0         0         0         0         0         0         0         0
         0         0         0         0         0         0         0         0
         0         0         0         0         0         0         0         0
         0         0         0         0         0         0         0         0
         0         0         0         0         0         0         0         0
         0         0         0         0         0         0         0         0
         0         0         0         0         0         0         0         0
         0         0         0         0         0         0         0         0
         0         0         0         0         0         0         0         0
         0         0         0         0         0         0         0         0
         0         0         0         0         0         0         0         0
         0         0         0         0         0         0         0         0
         0         0         0         0         0         0         0         0
         0         0         0         0         0         0         0         0
         0         0         0         0         0         0         0         0
         0         0         0         0         0         0         0         0
         0         0         0         0         0         0         0         0
         0         0         0         0         0         0         0         0
         0         0         0         0         0         0         0         0
         0         0         0         0         0         0         0         0
         0         0         0         0         0         0         0         0
         0         0         0         0         0         0         0         0
         0         0         0         0         0         0         0         0
         0         0         0         0         0         0         0         0
         0         0         0         0         0         0         0         0
         0         0         0         0         0         0         0         0
         0         0         0         0         0         0         0         0
         0         0         0         0         0         0         0         0
         0         0         0         0         0         0         0         0
         0         0         0         0         0         0         0         0
         0         0         0         0         0         0         0         0
         0         0         0         0         0         0         0         0
         0         0         0         0         0         0         0         0
         0         0         0         0         0         0         0         0
         0         0         0         0         0         0         0         0
         0         0         0         0         0         0         0         0
         0         0         0         0         0         0         0         0
         0         0         0         0         0         0         0         0
         0         0         0         0         0         0         0         0
         0         0         0         0         0         0         0         0
         0         0         0         0         0         0         0         0
         0         0         0         0         0         0         0         0
         0         0         0         0         0         0         0         0
         0         0         0         0         0         0         0         0
         0         0         0         0         0         0         0         0
         0         0         0         0         0         0         0         0
         0         0         0         0         0         0         0         0
         0         0         0         0         0         0         0         0
         0         0         0         0         0         0         0         0
         0         0         0         0         0         0         0         0
         0         0         0         0         0         0         0         0
         0         0         0         0         0         0         0         0
         0         0         0         0         0         0         0         0
         0         0         0         0         0         0         0         0
         0         0         0         0         0         0         0         0
         0         0         0         0         0         0         0         0
         0         0         0         0         0         0         0         0
         0         0         0         0         0         0         0         0
         0         0         0         0         0         0         0         0
         0         0         0         0         0         0         0         0
         0         0         0         0         0         0         0         0
         0         0         0         0         0         0         0         0
         0         0         0         0         0         0         0         0
         0         0         0         0         0         0         0         0
         0         0         0         0         0         0         0         0
         0         0         0         0         0         0         0         0
         0         0         0         0         0         0         0         0
         0         0         0         0         0         0         0         0
         0         0         0         0         0         0         0         0
         0         0         0         0         0         0         0         0
         0         0         0         0         0         0         0         0
         0         0         0         0         0         0         0         0
         0         0         0         0         0         0         0         0
         0         0         0         0         0         0         0         0
         0         0         0         0         0         0         0         0
         0         0         0         0         0         0         0         0
         0         0         0         0         0         0         0         0
         0         0         0         0         0         0         0         0
         0         0         0         0         0         0         0         0
         0         0         0         0         0         0         0         0
         0         0         0         0         0         0         0         0
         0         0         0         0         0         0         0         0
         0         0         0         0         0         0         0         0
         0         0         0         0         0         0         0         0
         0         0         0         0         0         0         0         0
         0         0         0         0         0         0         0         0
         0         0         0         0         0         0         0         0
         0         0         0         0         0         0         0         0
         0         0         0         0         0         0         0         0
         0         0         0         0         0         0         0         0
         0         0         0         0         0         0         0         0
         0         0         0         0         0         0         0         0
         0         0         0         0         0         0         0         0
         0         0         0         0         0         0         0         0
         0         0         0         0         0         0         0         0
         0         0         0         0         0         0         0         0
         0         0         0         0         0         0         0         0
         0         0         0         0         0         0         0         0
         0         0         0         0         0         0         0         0
         0         0         0         0         0         0         0         0
         0         0         0         0         0         0         0         0
         0         0         0         0         0         0         0         0
         0         0         0         0         0         0         0         0
         0         0         0         0         0         0         0         0
         0         0         0         0         0         0         0         0
         0         0         0         0         0         0         0         0
         0         0         0         0         0         0         0         0
         0         0         0         0         0         0         0         0
         0         0         0         0         0         0         0         0
         0         0         0         0         0         0         0         0
         0         0         0         0         0         0         0         0
         0         0         0         0         0         0         0         0
         0         0         0         0         0         0         0         0
         0         0         0         0         0         0         0         0
         0         0         0         0         0         0         0         0
         0         0         0         0         0         0         0         0
         0         0         0         0         0         0         0         0
         0         0         0         0         0         0         0         0
         0         0         0         0         0         0         0         0
         0         0         0         0         0         0         0         0
         0         0         0         0         0         0         0         0
         0         0         0         0         0         0         0         0
         0         0         0         0         0         0         0         0
         0         0         0         0         0         0         0         0
         0         0         0         0         0         0         0         0
         0         0         0         0         0         0         0         0
         0         0         0         0         0         0         0         0
         0         0         0         0         0         0         0         0
         0         0         0         0         0         0         0         0
         0         0         0         0         0         0         0         0
         0         0         0         0         0         0         0         0
         0         0         0         0         0         0         0         0
         0         0         0         0         0         0         0         0
         0         0         0         0         0         0         0         0
         0         0         0         0         0         0         0         0
         0         0         0         0         0         0         0         0
         0         0         0         0         0         0         0         0
         0         0         0         0         0         0         0         0
         0         0         0         0         0         0         0         0
         0         0         0         0         0         0         0         0
         0         0         0         0         0         0         0         0
         0         0         0         0         0         0         0         0
         0         0         0         0         0         0         0         0
         0         0         0         0         0         0         0         0
         0         0         0         0         0         0         0         0
         0         0         0         0         0         0         0         0
         0         0         0         0         0         0         0         0
         0         0         0         0         0         0         0         0
         0         0         0         0         0         0         0         0
         0         0         0         0         0         0         0         0
         0         0         0         0         0         0         0         0
         0         0         0         0         0         0         0         0
         0         0         0         0         0         0         0         0
         0         0         0         0         0         0         0         0
         0         0         0         0         0         0         0         0
         0         0         0         0         0         0         0         0
         0         0         0         0         0         0         0         0
         0         0         0         0         0         0         0         0
         0         0         0         0         0         0         0         0
         0         0         0         0         0         0         0         0
         0         0         0         0         0         0         0         0
         0         0         0         0         0         0         0         0
         0         0         0         0         0         0         0         0
         0         0         0         0         0         0         0         0
         0         0         0         0         0         0         0         0
         0         0         0         0         0         0         0         0
         0         0         0         0         0         0         0         0
         0         0         0         0         0         0         0         0
         0         0         0         0         0         0         0         0
         0         0         0         0         0         0         0         0
         0         0         0         0         0         0         0         0
         0         0         0         0         0         0         0         0
         0         0         0         0         0         0         0         0
         0         0         0         0         0         0         0         0
         0         0         0         0         0         0         0         0
         0         0         0         0         0         0         0         0
         0         0         0         0         0         0         0         0
         0         0         0         0         0         0         0         0
         0         0         0         0         0         0         0         0
         0         0         0         0         0         0         0         0
         0         0         0         0         0         0         0         0
         0         0         0         0         0         0         0         0
         0         0         0         0         0         0         0         0
         0         0         0         0         0         0         0         0
         0         0         0         0         0         0         0         0
         0         0         0         0         0         0         0         0
         0         0         0         0         0         0         0         0
         0         0         0         0         0         0         0         0
         0         0         0         0         0         0         0         0
         0         0         0         0         0         0         0         0
         0         0         0         0         0         0         0         0
         0         0         0         0         0         0         0         0
         0         0         0         0         0         0         0         0
         0         0         0         0         0         0         0         0
         0         0         0         0         0         0         0         0
         0         0         0         0         0         0         0         0
         0         0         0         0         0         0         0         0
         0         0         0         0         0         0         0         0
         0         0         0         0         0         0         0         0
         0         0         0         0         0         0         0         0
         0         0         0         0         0         0         0         0
         0         0         0         0         0         0         0         0
         0         0         0         0         0         0         0         0
         0         0         0         0         0         0         0         0
         0         0         0         0         0         0         0         0
         0         0         0         0         0         0         0         0
         0         0         0         0         0         0         0         0
         0         0         0         0         0         0         0         0
         0         0         0         0         0         0         0         0
         0         0         0         0         0         0         0         0
         0         0         0         0         0         0         0         0
         0         0         0         0         0         0         0         0
         0         0         0         0         0         0         0         0
         0         0         0         0         0         0         0         0
         0         0         0         0         0         0         0         0
         0         0         0         0         0         0         0         0
         0         0         0         0         0         0         0         0
         0         0         0         0         0         0         0         0
         0         0         0         0         0         0         0         0
         0         0         0         0         0         0         0         0
         0         0         0         0         0         0         0         0
         0         0         0         0         0         0         0         0
         0         0         0         0         0         0         0         0
         0         0         0         0         0         0         0         0
         0         0         0         0         0         0         0         0
         0         0         0         0         0         0         0         0
         0         0         0         0         0         0         0         0
         0         0         0         0         0         0         0         0
         0         0         0         0         0         0         0         0
         0         0         0         0         0         0         0         0
         0         0         0         0         0         0         0         0
         0         0         0         0         0         0         0         0
         0         0         0         0         0         0         0         0
         0         0         0         0         0         0         0         0
         0         0         0         0         0         0         0         0
         0         0         0         0         0         0         0         0
         0         0         0         0         0         0         0         0
         0         0         0         0         0         0         0         0
         0         0         0         0         0         0         0         0
         0         0         0         0         0         0         0         0
         0         0         0         0         0         0         0         0
         0         0         0         0         0         0         0         0
         0         0         0         0         0         0         0         0
         0         0         0         0         0         0         0         0
         0         0         0         0         0         0         0         0
         0         0         0         0         0         0         0         0
         0         0         0         0         0         0         0         0
         0         0         0         0         0         0         0         0
         0         0         0         0         0         0         0         0
         0         0         0         0         0         0         0         0
         0         0         0         0         0         0         0         0
         0         0         0         0         0         0         0         0
         0         0         0         0         0         0         0         0
         0         0         0         0         0         0         0         0
         0         0         0         0         0         0         0         0
         0         0         0         0         0         0         0         0
         0         0         0         0         0         0         0         0
         0         0         0         0         0         0         0         0
         0         0         0         0         0         0         0         0
         0         0         0         0         0         0         0         0
         0         0         0         0         0         0         0         0
         0         0         0         0         0         0         0         0
         0         0         0         0         0         0         0         0
         0         0         0         0         0         0         0         0
         0         0         0         0         0         0         0         0
         0         0         0         0         0         0         0         0
         0         0         0         0         0         0         0         0
         0         0         0         0         0         0         0         0
         0         0         0         0         0         0         0         0
         0         0         0         0         0         0         0         0
         0         0         0         0         0         0         0         0
         0         0         0         0         0         0         0         0
         0         0         0         0         0         0         0         0
         0         0         0         0         0         0         0         0
         0         0         0         0         0         0         0         0
         0         0         0         0         0         0         0         0
         0         0         0         0         0         0         0         0
         0         0         0         0         0         0         0         0
         0         0         0         0         0         0         0         0
         0         0         0         0         0         0         0         0
         0         0         0         0         0         0         0         0
         0         0         0         0         0         0         0         0
         0         0         0         0         0         0         0         0
         0         0         0         0         0         0         0         0
         0         0         0         0         0         0         0         0
         0         0         0         0         0         0         0         0
         0         0         0         0         0         0         0         0
         0         0         0         0         0         0         0         0
         0         0         0         0         0         0         0         0
         0         0         0         0         0         0         0         0
         0         0         0         0         0         0         0         0
         0         0         0         0         0         0         0         0
         0         0         0         0         0         0         0         0
         0         0         0         0         0         0         0         0
         0         0         0         0         0         0         0         0
         0         0         0         0         0         0         0         0
         0         0         0         0         0         0         0         0
         0         0         0         0         0         0         0         0
         0         0         0         0         0         0         0         0
         0         0         0         0         0         0         0         0
         0         0         0         0         0         0         0         0
         0         0         0         0         0         0         0         0
         0         0         0         0         0         0         0         0
         0         0         0         0         0         0         0         0
         0         0         0         0         0         0         0         0
         0         0         0         0         0         0         0         0
         0         0         0         0         0         0         0         0
         0         0         0         0         0         0         0         0
         0         0         0         0         0         0         0         0
         0         0         0         0         0         0         0         0
         0         0         0         0         0         0         0         0
         0         0         0         0         0         0         0         0
         0         0         0         0         0         0         0         0
         0         0         0         0         0         0         0         0
         0         0         0         0         0         0         0         0
         0         0         0         0         0         0         0         0
         0         0         0         0         0         0         0         0
         0         0         0         0         0         0         0         0
         0         0         0         0         0         0         0         0
         0         0         0         0         0         0         0         0
         0         0         0         0         0         0         0         0
         0         0         0         0         0         0         0         0
         0         0         0         0         0         0         0         0
         0         0         0         0         0         0         0         0
         0         0         0         0         0         0         0         0
         0         0         0         0         0         0         0         0
         0         0         0         0         0         0         0         0
         0         0         0         0         0         0         0         0
         0         0         0         0         0         0         0         0
         0         0         0         0         0         0         0         0
         0         0         0         0         0         0         0         0
         0         0         0         0         0         0         0         0
         0         0         0         0         0         0         0         0
         0         0         0         0         0         0         0         0
         0         0         0         0         0         0         0         0
         0         0         0         0         0         0         0         0
         0         0         0         0         0         0         0         0
         0         0         0         0         0         0         0         0
         0         0         0         0         0         0         0         0
         0         0         0         0         0         0         0         0
         0         0         0         0         0         0         0         0
         0         0         0         0         0         0         0         0
         0         0         0         0         0         0         0         0
         0         0         0         0         0         0         0         0
         0         0         0         0         0         0         0         0
         0         0         0         0         0         0         0         0
         0         0         0         0         0         0         0         0
         0         0         0         0         0         0         0         0
         0         0         0         0         0         0         0         0
         0         0         0         0         0         0         0         0
         0         0         0         0         0         0         0         0
         0         0         0         0         0         0         0         0
         0         0         0         0         0         0         0         0
         0         0         0         0         0         0         0         0
         0         0         0         0         0         0         0         0
         0         0         0         0         0         0         0         0
         0         0         0         0         0         0         0         0
         0         0         0         0         0         0         0         0
         0         0         0         0         0         0         0         0
         0         0         0         0         0         0         0         0
         0         0         0         0         0         0         0         0
         0         0         0         0         0         0         0         0
         0         0         0         0         0         0         0         0
         0         0         0         0         0         0         0         0
         0         0         0         0         0         0         0         0
         0         0         0         0         0         0         0         0
         0         0         0         0         0         0         0         0
         0         0         0         0         0         0         0         0
         0         0         0         0         0         0         0         0
         0         0         0         0         0         0         0         0
         0         0         0         0         0         0         0         0
         0         0         0         0         0         0         0         0
         0         0         0         0         0         0         0         0
         0         0         0         0         0         0         0         0
         0         0         0         0         0         0         0         0
         0         0         0         0         0         0         0         0
         0         0         0         0         0         0         0         0
         0         0         0         0         0         0         0         0
         0         0         0         0         0         0         0         0
         0         0         0         0         0         0         0         0
         0         0         0         0         0         0         0         0
         0         0         0         0         0         0         0         0
         0         0         0         0         0         0         0         0
         0         0         0         0         0         0         0         0
         0         0         0         0         0         0         0         0
         0         0         0         0         0         0         0         0
         0         0         0         0         0         0         0         0
         0         0         0         0         0         0         0         0
         0         0         0         0         0         0         0         0
         0         0         0         0         0         0         0         0
         0         0         0         0         0         0         0         0
         0         0         0         0         0         0         0         0
         0         0         0         0         0         0         0         0
         0         0         0         0         0         0         0         0
         0         0         0         0         0         0         0         0
         0         0         0         0         0         0         0         0
         0         0         0         0         0         0         0         0
         0         0         0         0         0         0         0         0
         0         0         0         0         0         0         0         0
         0         0         0         0         0         0         0         0
         0         0         0         0         0         0         0         0
         0         0         0         0         0         0         0         0
         0         0         0         0         0         0         0         0
         0         0         0         0         0         0         0         0
         0         0         0         0         0         0         0         0
         0         0         0         0         0         0         0         0
         0         0         0         0         0         0         0         0
         0         0         0         0         0         0         0         0
         0         0         0         0         0         0         0         0
         0         0         0         0         0         0         0         0
         0         0         0         0         0         0         0         0
         0         0         0         0         0         0         0         0
         0         0         0         0         0         0         0         0
         0         0         0         0         0         0         0         0
         0         0         0         0         0         0         0         0
         0         0         0         0         0         0         0         0
         0         0         0         0         0         0         0         0
         0         0         0         0         0         0         0         0
         0         0         0         0         0         0         0         0
         0         0         0         0         0         0         0         0
         0         0         0         0         0         0         0         0
         0         0         0         0         0         0         0         0
         0         0         0         0         0         0         0         0
         0         0         0         0         0         0         0         0
         0         0         0         0         0         0         0         0
         0         0         0         0         0         0         0         0
         0         0         0         0         0         0         0         0
         0         0         0         0         0         0         0         0
         0         0         0         0         0         0         0         0
         0         0         0         0         0         0         0         0
         0         0         0         0         0         0         0         0
         0         0         0         0         0         0         0         0
         0         0         0         0         0         0         0         0
         0         0         0         0         0         0         0         0
         0         0         0         0         0         0         0         0
         0         0         0         0         0         0         0         0
         0         0         0         0         0         0         0         0
         0         0         0         0         0         0         0         0
         0         0         0         0         0         0         0         0
         0         0         0         0         0         0         0         0
         0         0         0         0         0         0         0         0
         0         0         0         0         0         0         0         0
         0         0         0         0         0         0         0         0
         0         0         0         0         0         0         0         0
         0         0         0         0         0         0         0         0
         0         0         0         0         0         0         0         0
         0         0         0         0         0         0         0         0
         0         0         0         0         0         0         0         0
         0         0         0         0         0         0         0         0
         0         0         0         0         0         0         0         0
         0         0         0         0         0         0         0         0
         0         0         0         0         0         0         0         0
         0         0         0         0         0         0         0         0
         0         0         0         0         0         0         0         0
         0         0         0         0         0         0         0         0
         0         0         0         0         0         0         0         0
         0         0         0         0         0         0         0         0
         0         0         0         0         0         0         0         0
         0         0         0         0         0         0         0         0
         0         0         0         0         0         0         0         0
         0         0         0         0         0         0         0         0
         0         0         0         0         0         0         0         0
         0         0         0         0         0         0         0         0
         0         0         0         0         0         0         0         0
         0         0         0         0         0         0         0         0
         0         0         0         0         0         0         0         0
         0         0         0         0         0         0         0         0
         0         0         0         0         0         0         0         0
         0         0         0         0         0         0         0         0
         0         0         0         0         0         0         0         0
         0         0         0         0         0         0         0         0
         0         0         0         0         0         0         0         0
         0         0         0         0         0         0         0         0
         0         0         0         0         0         0         0         0
         0         0         0         0         0         0         0         0
         0         0         0         0         0         0         0         0
         0         0         0         0         0         0         0         0
         0         0         0         0         0         0         0         0
         0         0         0         0         0         0         0         0
         0         0         0         0         0         0         0         0
         0         0         0         0         0         0         0         0
         0         0         0         0         0         0         0         0
         0         0         0         0         0         0         0         0
         0         0         0         0         0         0         0         0
         0         0         0         0         0         0         0         0
         0         0         0         0         0         0         0         0
         0         0         0         0         0         0         0         0
         0         0         0         0         0         0         0         0
         0         0         0         0         0         0         0         0
         0         0         0         0         0         0         0         0
         0         0         0         0         0         0         0         0
         0         0         0         0         0         0         0         0
         0         0         0         0         0         0         0         0
         0         0         0         0         0         0         0         0
         0         0         0         0         0         0         0         0
         0         0         0         0         0         0         0         0
         0         0         0         0         0         0         0         0
         0         0         0         0         0         0         0         0
         0         0         0         0         0         0         0         0
         0         0         0         0         0         0         0         0
         0         0         0         0         0         0         0         0
         0         0         0         0         0         0         0         0
         0         0         0         0         0         0         0         0
         0         0         0         0         0         0         0         0
         0         0         0         0         0         0         0         0
         0         0         0         0         0         0         0         0
         0         0         0         0         0         0         0         0
         0         0         0         0         0         0         0         0
         0         0         0         0         0         0         0         0
         0         0         0         0         0         0         0         0
         0         0         0         0         0         0         0         0
         0         0         0         0         0         0         0         0
         0         0         0         0         0         0         0         0
         0         0         0         0         0         0         0         0
         0         0         0         0         0         0         0         0
         0         0         0         0         0         0         0         0
         0         0         0         0         0         0         0         0
         0         0         0         0         0         0         0         0
         0         0         0         0         0         0         0         0
         0         0         0         0         0         0         0         0
         0         0         0         0         0         0         0         0
         0         0         0         0         0         0         0         0
         0         0         0         0         0         0         0         0
         0         0         0         0         0         0         0         0
         0         0         0         0         0         0         0         0
         0         0         0         0         0         0         0         0
         0         0         0         0         0         0         0         0
         0         0         0         0         0         0         0         0
         0         0         0         0         0         0         0         0
         0         0         0         0         0         0         0         0
         0         0         0         0         0         0         0         0
         0         0         0         0         0         0         0         0
         0         0         0         0         0         0         0         0
         0         0         0         0         0         0         0         0
         0         0         0         0         0         0         0         0
         0         0         0         0         0         0         0         0
         0         0         0         0         0         0         0         0
         0         0         0         0         0         0         0         0
         0         0         0         0         0         0         0         0
         0         0         0         0         0         0         0         0
         0         0         0         0         0         0         0         0
         0         0         0         0         0         0         0         0
         0         0         0         0         0         0         0         0
         0         0         0         0         0         0         0         0
         0         0         0         0         0         0         0         0
         0         0         0         0         0         0         0         0
         0         0         0         0         0         0         0         0
         0         0         0         0         0         0         0         0
         0         0         0         0         0         0         0         0
         0         0         0         0         0         0         0         0
         0         0         0         0         0         0         0         0
         0         0         0         0         0         0         0         0
         0         0         0         0         0         0         0         0
         0         0         0         0         0         0         0         0
         0         0         0         0         0         0         0         0
         0         0         0         0         0         0         0         0
         0         0         0         0         0         0         0         0
         0         0         0         0         0         0         0         0
         0         0         0         0         0         0         0         0
         0         0         0         0         0         0         0         0
         0         0         0         0         0         0         0         0
         0         0         0         0         0         0         0         0
         0         0         0         0         0         0         0         0
         0         0         0         0         0         0         0         0
         0         0         0         0         0         0         0         0
         0         0         0         0         0         0         0         0
         0         0         0         0         0         0         0         0
         0         0         0         0         0         0         0         0
         0         0         0         0         0         0         0         0
         0         0         0         0         0         0         0         0
         0         0         0         0         0         0         0         0
         0         0         0         0         0         0         0         0
         0         0         0         0         0         0         0         0
         0         0         0         0         0         0         0         0
         0         0         0         0         0         0         0         0
         0         0         0         0         0         0         0         0
         0         0         0         0         0         0         0         0
         0         0         0         0         0         0         0         0
         0         0         0         0         0         0         0         0
         0         0         0         0         0         0         0         0
         0         0         0         0         0         0         0         0
         0         0         0         0         0         0         0         0
         0         0         0         0         0         0         0         0
         0         0         0         0         0         0         0         0
         0         0         0         0         0         0         0         0
         0         0         0         0         0         0         0         0
         0         0         0         0         0         0         0         0
         0         0         0         0         0         0         0         0
         0         0         0         0         0         0         0         0
         0         0         0         0         0         0         0         0
         0         0         0         0         0         0         0         0
         0         0         0         0         0         0         0         0
         0         0         0         0         0         0         0         0
         0         0         0         0         0         0         0         0
         0         0         0         0         0         0         0         0
         0         0         0         0         0         0         0         0
         0         0         0         0         0         0         0         0
         0         0         0         0         0         0         0         0
         0         0         0         0         0         0         0         0
         0         0         0         0         0         0         0         0
         0         0         0         0         0         0         0         0
         0         0         0         0         0         0         0         0
         0         0         0         0         0         0         0         0
         0         0         0         0         0         0         0         0
         0         0         0         0         0         0         0         0
         0         0         0         0         0         0         0         0
         0         0         0         0         0         0         0         0
         0         0         0         0         0         0         0         0
         0         0         0         0         0         0         0         0
         0         0         0         0         0         0         0         0
         0         0         0         0         0         0         0         0
         0         0         0         0         0         0         0         0
         0         0         0         0         0         0         0         0
         0         0         0         0         0         0         0         0
         0         0         0         0         0         0         0         0
         0         0         0         0         0         0         0         0
         0         0         0         0         0         0         0         0
         0         0         0         0         0         0         0         0
         0         0         0         0         0         0         0         0
         0         0         0         0         0         0         0         0
         0         0         0         0         0         0         0         0
         0         0         0         0         0         0         0         0
         0         0         0         0         0         0         0         0
         0         0         0         0         0         0         0         0
         0         0         0         0         0         0         0         0
         0         0         0         0         0         0         0         0
         0         0         0         0         0         0         0         0
         0         0         0         0         0         0         0         0
         0         0         0         0         0         0         0         0
         0         0         0         0         0         0         0         0
         0         0         0         0         0         0         0         0
         0         0         0         0         0         0         0         0
         0         0         0         0         0         0         0         0
         0         0         0         0         0         0         0         0
         0         0         0         0         0         0         0         0
         0         0         0         0         0         0         0         0
         0         0         0         0         0         0         0         0
         0         0         0         0         0         0         0         0
         0         0         0         0         0         0         0         0
         0         0         0         0         0         0         0         0
         0         0         0         0         0         0         0         0
         0         0         0         0         0         0         0         0
         0         0         0         0         0         0         0         0
         0         0         0         0         0         0         0         0
         0         0         0         0         0         0         0         0
         0         0         0         0         0         0         0         0
         0         0         0         0         0         0         0         0
         0         0         0         0         0         0         0         0
         0         0         0         0         0         0         0         0
         0         0         0         0         0         0         0         0
         0         0         0         0         0         0         0         0
         0         0         0         0         0         0         0         0
         0         0         0         0         0         0         0         0
         0         0         0         0         0         0         0         0
         0         0         0         0         0         0         0         0
         0         0         0         0         0         0         0         0
         0         0         0         0         0         0         0         0
         0         0         0         0         0         0         0         0
         0         0         0         0         0         0         0         0
         0         0         0         0         0         0         0         0
         0         0         0         0         0         0         0         0
         0         0         0         0         0         0         0         0
         0         0         0         0         0         0         0         0
         0         0         0         0         0         0         0         0
         0         0         0         0         0         0         0         0
         0         0         0         0         0         0         0         0
         0         0         0         0         0         0         0         0
         0         0         0         0         0         0         0         0
         0         0         0         0         0         0         0         0
         0         0         0         0         0         0         0         0
         0         0         0         0         0         0         0         0
         0         0         0         0         0         0         0         0
         0         0         0         0         0         0         0         0
         0         0         0         0         0         0         0         0
         0         0         0         0         0         0         0         0
         0         0         0         0         0         0         0         0
         0         0         0         0         0         0         0         0
         0         0         0         0         0         0         0         0
         0         0         0         0         0         0         0         0
         0         0         0         0         0         0         0         0
         0         0         0         0         0         0         0         0
         0         0         0         0         0         0         0         0
         0         0         0         0         0         0         0         0
         0         0         0         0         0         0         0         0
         0         0         0         0         0         0         0         0
         0         0         0         0         0         0         0         0
         0         0         0         0         0         0         0         0
         0         0         0         0         0         0         0         0
         0         0         0         0         0         0         0         0
         0         0         0         0         0         0         0         0
         0         0         0         0         0         0         0         0
         0         0         0         0         0         0         0         0
         0         0         0         0         0         0         0         0
         0         0         0         0         0         0         0         0
         0         0         0         0         0         0         0         0
         0         0         0         0         0         0         0         0
         0         0         0         0         0         0         0         0
         0         0         0         0         0         0         0         0
         0         0         0         0         0         0         0         0
         0         0         0         0         0         0         0         0
         0         0         0         0         0         0         0         0
         0         0         0         0         0         0         0         0
         0         0         0         0         0         0         0         0
         0         0         0         0         0         0         0         0
         0         0         0         0         0         0         0         0
         0         0         0         0         0         0         0         0
         0         0         0         0         0         0         0         0
         0         0         0         0         0         0         0         0
         0         0         0         0         0         0         0         0
         0         0         0         0         0         0         0         0
         0         0         0         0         0         0         0         0
         0         0         0         0         0         0         0         0
         0         0         0         0         0         0         0         0
         0         0         0         0         0         0         0         0
         0         0         0         0         0         0         0         0
         0         0         0         0         0         0         0         0
         0         0         0         0         0         0         0         0
         0         0         0         0         0         0         0         0
         0         0         0         0         0         0         0         0
         0         0         0         0         0         0         0         0
         0         0         0         0         0         0         0         0
         0         0         0         0         0         0         0         0
         0         0         0         0         0         0         0         0
         0         0         0         0         0         0         0         0
         0         0         0         0         0         0         0         0
         0         0         0         0         0         0         0         0
         0         0         0         0         0         0         0         0
         0         0         0         0         0         0         0         0
         0         0         0         0         0         0         0         0
         0         0         0         0         0         0         0         0
         0         0         0         0         0         0         0         0
         0         0         0         0         0         0         0         0
         0         0         0         0         0         0         0         0
         0         0         0         0         0         0         0         0
         0         0         0         0         0         0         0         0
         0         0         0         0         0         0         0         0
         0         0         0         0         0         0         0         0
         0         0         0         0         0         0         0         0
         0         0         0         0         0         0         0         0
         0         0         0         0         0         0         0         0
         0         0         0         0         0         0         0         0
         0         0         0         0         0         0         0         0
         0         0         0         0         0         0         0         0
         0         0         0         0         0         0         0         0
         0         0         0         0         0         0         0         0
         0         0         0         0         0         0         0         0
         0         0         0         0         0         0         0         0
         0         0         0         0         0         0         0         0
         0         0         0         0         0         0         0         0
         0         0         0         0         0         0         0         0
         0         0         0         0         0         0         0         0
         0         0         0         0         0         0         0         0
         0         0         0         0         0         0         0         0
         0         0         0         0         0         0         0         0
         0         0         0         0         0         0         0         0
         0         0         0         0         0         0         0         0
         0         0         0         0         0         0         0         0
         0         0         0         0         0         0         0         0
         0         0         0         0         0         0         0         0
         0         0         0         0         0         0         0         0
         0         0         0         0         0         0         0         0
         0         0         0         0         0         0         0         0
         0         0         0         0         0         0         0         0
         0         0         0         0         0         0         0         0
         0         0         0         0         0         0         0         0
         0         0         0         0         0         0         0         0
         0         0         0         0         0         0         0         0
         0         0         0         0         0         0         0         0
         0         0         0         0         0         0         0         0
         0         0         0         0         0         0         0         0
         0         0         0         0         0         0         0         0
         0         0         0         0         0         0         0         0
         0         0         0         0         0         0         0         0
         0         0         0         0         0         0         0         0
         0         0         0         0         0         0         0         0
         0         0         0         0         0         0         0         0
         0         0         0         0         0         0         0         0
         0         0         0         0         0         0         0         0
         0         0         0         0         0         0         0         0
         0         0         0         0         0         0         0         0
         0         0         0         0         0         0         0         0
         0         0         0         0         0         0         0         0
         0         0         0         0         0         0         0         0
         0         0         0         0         0         0         0         0
         0         0         0         0         0         0         0         0
         0         0         0         0         0         0         0         0
         0         0         0         0         0         0         0         0
         0         0         0         0         0         0         0         0
         0         0         0         0         0         0         0         0
         0         0         0         0         0         0         0         0
         0         0         0         0         0         0         0         0
         0         0         0         0         0         0         0         0
         0         0         0         0         0         0         0         0
         0         0         0         0         0         0         0         0
         0         0         0         0         0         0         0         0
         0         0         0         0         0         0         0         0
         0         0         0         0         0         0         0         0
         0         0         0         0         0         0         0         0
         0         0         0         0         0         0         0         0
         0         0         0         0         0         0         0         0
         0         0         0         0         0         0         0         0
         0         0         0         0         0         0         0         0
         0         0         0         0         0         0         0         0
         0         0         0         0         0         0         0         0
         0         0         0         0         0         0         0         0
         0         0         0         0         0         0         0         0
         0         0         0         0         0         0         0         0
         0         0         0         0         0         0         0         0
         0         0         0         0         0         0         0         0
         0         0         0         0         0         0         0         0
         0         0         0         0         0         0         0         0
         0         0         0         0         0         0         0         0
         0         0         0         0         0         0         0         0
         0         0         0         0         0         0         0         0
         0         0         0         0         0         0         0         0
         0         0         0         0         0         0         0         0
         0         0         0         0         0         0         0         0
         0         0         0         0         0         0         0         0
         0         0         0         0         0         0         0         0
         0         0         0         0         0         0         0         0
         0         0         0         0         0         0         0         0
         0         0         0         0         0         0         0         0
         0         0         0         0         0         0         0         0
         0         0         0         0         0         0         0         0
         0         0         0         0         0         0         0         0
         0         0         0         0         0         0         0         0
         0         0         0         0         0         0         0         0
         0         0         0         0         0         0         0         0
         0         0         0         0         0         0         0         0
         0         0         0         0         0         0         0         0
         0         0         0         0         0         0         0         0
         0         0         0         0         0         0         0         0
         0         0         0         0         0         0         0         0
         0         0         0         0         0         0         0         0
         0         0         0         0         0         0         0         0
         0         0         0         0         0         0         0         0
         0         0         0         0         0         0         0         0
         0         0         0         0         0         0         0         0
         0         0         0         0         0         0         0         0
         0         0         0         0         0         0         0         0
         0         0         0         0         0         0         0         0
         0         0         0         0         0         0         0         0
         0         0         0         0         0         0         0         0
         0         0         0         0         0         0         0         0
         0         0         0         0         0         0         0         0
         0         0         0         0         0         0         0         0
         0         0         0         0         0         0         0         0
         0         0         0         0         0         0         0         0
         0         0         0         0         0         0         0         0
         0         0         0         0         0         0         0         0
         0         0         0         0         0         0         0         0
         0         0         0         0         0         0         0         0
         0         0         0         0         0         0         0         0
         0         0         0         0         0         0         0         0
         0         0         0         0         0         0         0         0
         0         0         0         0         0         0         0         0
         0         0         0         0         0         0         0         0
         0         0         0         0         0         0         0         0
         0         0         0         0         0         0         0         0
         0         0         0         0         0         0         0         0
         0         0         0         0         0         0         0         0
         0         0         0         0         0         0         0         0
         0         0         0         0         0         0         0         0
         0         0         0         0         0         0         0         0
         0         0         0         0         0         0         0         0
         0         0         0         0         0         0         0         0
         0         0         0         0         0         0         0         0
         0         0         0         0         0         0         0         0
         0         0         0         0         0         0         0         0
         0         0         0         0         0         0         0         0
         0         0         0         0         0         0         0         0
         0         0         0         0         0         0         0         0
         0         0         0         0         0         0         0         0
         0         0         0         0         0         0         0         0
         0         0         0         0         0         0         0         0
         0         0         0         0         0         0         0         0
         0         0         0         0         0         0         0         0
         0         0         0         0         0         0         0         0
         0         0         0         0         0         0         0         0
         0         0         0         0         0         0         0         0
         0         0         0         0         0         0         0         0
         0         0         0         0         0         0         0         0
         0         0         0         0         0         0         0         0
         0         0         0         0         0         0         0         0
         0         0         0         0         0         0         0         0
         0         0         0         0         0         0         0         0
         0         0         0         0         0         0         0         0
         0         0         0         0         0         0         0         0
         0         0         0         0         0         0         0         0
         0         0         0         0         0         0         0         0
         0         0         0         0         0         0         0         0
         0         0         0         0         0         0         0         0
         0         0         0         0         0         0         0         0
         0         0         0         0         0         0         0         0
         0         0         0         0         0         0         0         0
         0         0         0         0         0         0         0         0
         0         0         0         0         0         0         0         0
         0         0         0         0         0         0         0         0
         0         0         0         0         0         0         0         0
         0         0         0         0         0         0         0         0
         0         0         0         0         0         0         0         0
         0         0         0         0         0         0         0         0
         0         0         0         0         0         0         0         0
         0         0         0         0         0         0         0         0
         0         0         0         0         0         0         0         0
         0         0         0         0         0         0         0         0
         0         0         0         0         0         0         0         0
         0         0         0         0         0         0         0         0
         0         0         0         0         0         0         0         0
         0         0         0         0         0         0         0         0
         0         0         0         0         0         0         0         0
         0         0         0         0         0         0         0         0
         0         0         0         0         0         0         0         0
         0         0         0         0         0         0         0         0
         0         0         0         0         0         0         0         0
         0         0         0         0         0         0         0         0
         0         0         0         0         0         0         0         0
         0         0         0         0         0         0         0         0
         0         0         0         0         0         0         0         0
         0         0         0         0         0         0         0         0
         0         0         0         0         0         0         0         0
         0         0         0         0         0         0         0         0
         0         0         0         0         0         0         0         0
         0         0         0         0         0         0         0         0
         0         0         0         0         0         0         0         0
         0         0         0         0         0         0         0         0
         0         0         0         0         0         0         0         0
         0         0         0         0         0         0         0         0
         0         0         0         0         0         0         0         0
         0         0         0         0         0         0         0         0
         0         0         0         0         0         0         0         0
         0         0         0         0         0         0         0         0
         0         0         0         0         0         0         0         0
         0         0         0         0         0         0         0         0
         0         0         0         0         0         0         0         0
         0         0         0         0         0         0         0         0
         0         0         0         0         0         0         0         0
         0         0         0         0         0         0         0         0
         0         0         0         0         0         0         0         0
         0         0         0         0         0         0         0         0
         0         0         0         0         0         0         0         0
         0         0         0         0         0         0         0         0
         0         0         0         0         0         0         0         0
         0         0         0         0         0         0         0         0
         0         0         0         0         0         0         0         0
         0         0         0         0         0         0         0         0
         0         0         0         0         0         0         0         0
         0         0         0         0         0         0         0         0
         0         0         0         0         0         0         0         0
         0         0         0         0         0         0         0         0
         0         0         0         0         0         0         0         0
         0         0         0         0         0         0         0         0
         0         0         0         0         0         0         0         0
         0         0         0         0         0         0         0         0
         0         0         0         0         0         0         0         0
         0         0         0         0         0         0         0         0
         0         0         0         0         0         0         0         0
         0         0         0         0         0         0         0         0
         0         0         0         0         0         0         0         0
         0         0         0         0         0         0         0         0
         0         0         0         0         0         0         0         0
         0         0         0         0         0         0         0         0
         0         0         0         0         0         0         0         0
         0         0         0         0         0         0         0         0
         0         0         0         0         0         0         0         0
         0         0         0         0         0         0         0         0
         0         0         0         0         0         0         0         0
         0         0         0         0         0         0         0         0
         0         0         0         0         0         0         0         0
         0         0         0         0         0         0         0         0
         0         0         0         0         0         0         0         0
         0         0         0         0         0         0         0         0
         0         0         0         0         0         0         0         0
         0         0         0         0         0         0         0         0
         0         0         0         0         0         0         0         0
         0         0         0         0         0         0         0         0
         0         0         0         0         0         0         0         0
         0         0         0         0         0         0         0         0
         0         0         0         0         0         0         0         0
         0         0         0         0         0         0         0         0
         0         0         0         0         0         0         0         0
         0         0         0         0         0         0         0         0
         0         0         0         0         0         0         0         0
         0         0         0         0         0         0         0         0
         0         0         0         0         0         0         0         0
         0         0         0         0         0         0         0         0
         0         0         0         0         0         0         0         0
         0         0         0         0         0         0         0         0
         0         0         0         0         0         0         0         0
         0         0         0         0         0         0         0         0
         0         0         0         0         0         0         0         0
         0         0         0         0         0         0         0         0
         0         0         0         0         0         0         0         0
         0         0         0         0         0         0         0         0
         0         0         0         0         0         0         0         0
         0         0         0         0         0         0         0         0
         0         0         0         0         0         0         0         0
         0         0         0         0         0         0         0         0
         0         0         0         0         0         0         0         0
         0         0         0         0         0         0         0         0
         0         0         0         0         0         0         0         0
         0         0         0         0         0         0         0         0
         0         0         0         0         0         0         0         0
         0         0         0         0         0         0         0         0
         0         0         0         0         0         0         0         0
         0         0         0         0         0         0         0         0
         0         0         0         0         0         0         0         0
         0         0         0         0         0         0         0         0
         0         0         0         0         0         0         0         0
         0         0         0         0         0         0         0         0
         0         0         0         0         0         0         0         0
         0         0         0         0         0         0         0         0
         0         0         0         0         0         0         0         0
         0         0         0         0         0         0         0         0
         0         0         0         0         0         0         0         0
         0         0         0         0         0         0         0         0
         0         0         0         0         0         0         0         0
         0         0         0         0         0         0         0         0
         0         0         0         0         0         0         0         0
         0         0         0         0         0         0         0         0
         0         0         0         0         0         0         0         0
         0         0         0         0         0         0         0         0
         0         0         0         0         0         0         0         0
         0         0         0         0         0         0         0         0
         0         0         0         0         0         0         0         0
         0         0         0         0         0         0         0         0
         0         0         0         0         0         0         0         0
         0         0         0         0         0         0         0         0
         0         0         0         0         0         0         0         0
         0         0         0         0         0         0         0         0
         0         0         0         0         0         0         0         0
         0         0         0         0         0         0         0         0
         0         0         0         0         0         0         0         0
         0         0         0         0         0         0         0         0
         0         0         0         0         0         0         0         0
         0         0         0         0         0         0         0         0
         0         0         0         0         0         0         0         0
         0         0         0         0         0         0         0         0
         0         0         0         0         0         0         0         0
         0         0         0         0         0         0         0         0
         0         0         0         0         0         0         0         0
         0         0         0         0         0         0         0         0
         0         0         0         0         0         0         0         0
         0         0         0         0         0         0         0         0
         0         0         0         0         0         0         0         0
         0         0         0         0         0         0         0         0
         0         0         0         0         0         0         0         0
         0         0         0         0         0         0         0         0
         0         0         0         0         0         0         0         0
         0         0         0         0         0         0         0         0
         0         0         0         0         0         0         0         0
         0         0         0         0         0         0         0         0
         0         0         0         0         0         0         0         0
         0         0         0         0         0         0         0         0
         0         0         0         0         0         0         0         0
         0         0         0         0         0         0         0         0
         0         0         0         0         0         0         0         0
         0         0         0         0         0         0         0         0
         0         0         0         0         0         0         0         0
         0         0         0         0         0         0         0         0
         0         0         0         0         0         0         0         0
         0         0         0         0         0         0         0         0
         0         0         0         0         0         0         0         0
         0         0         0         0         0         0         0         0
         0         0         0         0         0         0         0         0
         0         0         0         0         0         0         0         0
         0         0         0         0         0         0         0         0
         0         0         0         0         0         0         0         0
         0         0         0         0         0         0         0         0
         0         0         0         0         0         0         0         0
         0         0         0         0         0         0         0         0
         0         0         0         0         0         0         0         0
         0         0         0         0         0         0         0         0
         0         0         0         0         0         0         0         0
         0         0         0         0         0         0         0         0
         0         0         0         0         0         0         0         0
         0         0         0         0         0         0         0         0
         0         0         0         0         0         0         0         0
         0         0         0         0         0         0         0         0
         0         0         0         0         0         0         0         0
         0         0         0         0         0         0         0         0
         0         0         0         0         0         0         0         0
         0         0         0         0         0         0         0         0
         0         0         0         0         0         0         0         0
         0         0         0         0         0         0         0         0
         0         0         0         0         0         0         0         0
         0         0         0         0         0         0         0         0
         0         0         0         0         0         0         0         0
         0         0         0         0         0         0         0         0
         0         0         0         0         0         0         0
     22322     22321     22323         0         1
     22325     22324     22326         0         1
     22328     22327     22329         0         1
     22331     22330     22332         0         1
     22334     22333     22335         0         1
     22337     22336     22338         0         1
     22340     22339     22341         0         1
     22343     22342     22344         0         1
     22346     22345     22347         0         1
     22349     22348     22350         0         1
     22352     22351     22353         0         1
     22355     22354     22356         0         1
     22358     22357     22359         0         1
     22361     22360     22362         0         1
     22364     22363     22365         0         1
     22367     22366     22368         0         1
     22370     22369     22371         0         1
     22373     22372     22374         0         1
     22376     22375     22377         0         1
     22379     22378     22380         0         1
     22382     22381     22383         0         1
     22385     22384     22386         0         1
     22388     22387     22389         0         1
     22391     22390     22392         0         1
     22394     22393     22395         0         1
     22397     22396     22398         0         1
     22400     22399     22401         0         1
     22403     22402     22404         0         1
     22406     22405     22407         0         1
     22409     22408     22410         0         1
     22412     22411     22413         0         1
     22415     22414     22416         0         1
     22418     22417     22419         0         1
     22421     22420     22422         0         1
     22424     22423     22425         0         1
     22427     22426     22428         0         1
     22430     22429     22431         0         1
     22433     22432     22434         0         1
     22436     22435     22437         0         1
     22439     22438     22440         0         1
     22442     22441     22443         0         1
     22445     22444     22446         0         1
     22448     22447     22449         0         1
     22451     22450     22452         0         1
     22454     22453     22455         0         1
     22457     22456     22458         0         1
     22460     22459     22461         0         1
     22463     22462     22464         0         1
     22466     22465     22467         0         1
     22469     22468     22470         0         1
     22472     22471     22473         0         1
     22475     22474     22476         0         1
     22478     22477     22479         0         1
     22481     22480     22482         0         1
     22484     22483     22485         0         1
     22487     22486     22488         0         1
     22490     22489     22491         0         1
     22493     22492     22494         0         1
     22496     22495     22497         0         1
     22499     22498     22500         0         1
     22502     22501     22503         0         1
     22505     22504     22506         0         1
     22508     22507     22509         0         1
     22511     22510     22512         0         1
     22514     22513     22515         0         1
     22517     22516     22518         0         1
     22520     22519     22521         0         1
     22523     22522     22524         0         1
     22526     22525     22527         0         1
     22529     22528     22530         0         1
     22532     22531     22533         0         1
     22535     22534     22536         0         1
     22538     22537     22539         0         1
     22541     22540     22542         0         1
     22544     22543     22545         0         1
     22547     22546     22548         0         1
     22550     22549     22551         0         1
     22553     22552     22554         0         1
     22556     22555     22557         0         1
     22559     22558     22560         0         1
     22562     22561     22563         0         1
     22565     22564     22566         0         1
     22568     22567     22569         0         1
     22571     22570     22572         0         1
     22574     22573     22575         0         1
     22577     22576     22578         0         1
     22580     22579     22581         0         1
     22583     22582     22584         0         1
     22586     22585     22587         0         1
