* GENERATED BY CHARMM-GUI (HTTP://WWW.CHARMM-GUI.ORG) V3.7 ON OCT, 22. 2024. JOB
* GENERATES ION CONFORMATION USING MONTE-CARLO SIMULATION
*  DATE:    10/22/24     10:40: 0      CREATED BY USER: apache
*
        54  EXT
         1         1  SOD       SOD           -19.4039729000      -12.5444401000       33.5383471000  IONS      1               1.0000000000
         2         2  SOD       SOD           -18.2058266018       10.9592557979       41.7552441904  IONS      2               1.0000000000
         3         3  SOD       SOD            17.4086676100       -7.3537387504       40.6298453009  IONS      3               1.0000000000
         4         4  SOD       SOD            12.4566051000       12.4577838000       36.7805951000  IONS      4               1.0000000000
         5         5  SOD       SOD             2.0996083808       12.2268785247      -36.9451749307  IONS      5               1.0000000000
         6         6  SOD       SOD           -16.0525568000       -2.2715599800      -28.0784137000  IONS      6               1.0000000000
         7         7  SOD       SOD           -12.7587548049      -32.8203005311      -35.7728320738  IONS      7               1.0000000000
         8         8  SOD       SOD           -21.9922190000      -14.9614669000      -25.5352583000  IONS      8               1.0000000000
         9         9  SOD       SOD           -18.8527907000      -19.2893446000      -33.1404688000  IONS      9               1.0000000000
        10        10  SOD       SOD           -22.1129376000      -13.6464364000      -39.4215791000  IONS      10              1.0000000000
        11        11  SOD       SOD            29.8009200000        0.9050493220       32.9266579000  IONS      11              1.0000000000
        12        12  SOD       SOD            24.2715995960      -26.3048420954       34.9214513191  IONS      12              1.0000000000
        13        13  SOD       SOD            -1.5428722800        1.3010759700       27.6558303000  IONS      13              1.0000000000
        14        14  SOD       SOD            17.4647441000      -10.1904621000      -33.6636881000  IONS      14              1.0000000000
        15        15  SOD       SOD           -11.5249179000      -10.4765711000       23.1365312000  IONS      15              1.0000000000
        16        16  SOD       SOD            17.1841938000       20.4190934000      -29.3426361000  IONS      16              1.0000000000
        17        17  SOD       SOD           -30.9129375000        7.0461728900       37.4665102000  IONS      17              1.0000000000
        18        18  SOD       SOD           -13.0848870000      -11.9026625000       33.0535000000  IONS      18              1.0000000000
        19        19  SOD       SOD           -25.8235860000      -34.4532898000       42.1129956000  IONS      19              1.0000000000
        20        20  SOD       SOD            10.3700758000      -28.9200224000       41.4193587000  IONS      20              1.0000000000
        21        21  SOD       SOD           -15.6029517054       14.7377680207       36.7725686934  IONS      21              1.0000000000
        22        22  SOD       SOD            -6.9211648000      -30.6910984000       35.1449378000  IONS      22              1.0000000000
        23        23  SOD       SOD            -4.3950442900      -21.7667414000       36.7988616000  IONS      23              1.0000000000
        24        24  SOD       SOD            -1.4804053100       -9.1154079800       34.0520600000  IONS      24              1.0000000000
        25        25  SOD       SOD           -25.6861814000       30.6519935000      -27.7144355000  IONS      25              1.0000000000
        26        26  SOD       SOD           -30.7762979000       -1.7924518600       42.3064871000  IONS      26              1.0000000000
        27        27  SOD       SOD             8.4802764000       25.5344373000      -28.4231664000  IONS      27              1.0000000000
        28        28  SOD       SOD            26.4787974000       -9.5135685500      -36.0578871000  IONS      28              1.0000000000
        29        29  SOD       SOD            14.5111319000        8.6799195300      -38.8336404000  IONS      29              1.0000000000
        30        30  SOD       SOD           -19.4076410000       28.3286668000       28.6206008000  IONS      30              1.0000000000
        31        31  SOD       SOD           -13.0741884899       35.8729957110       34.5604573867  IONS      31              1.0000000000
        32        32  SOD       SOD           -34.1528294000      -30.5628309000      -23.0756175000  IONS      32              1.0000000000
        33        33  SOD       SOD           -31.5874656000       25.5462200000       31.0830673000  IONS      33              1.0000000000
        34        34  SOD       SOD             1.7604281341       15.0835051977      -42.2084416795  IONS      34              1.0000000000
        35        35  SOD       SOD           -24.5971551000        6.2715016500       30.7566132000  IONS      35              1.0000000000
        36        36  SOD       SOD            17.3911476000      -30.9186720000      -39.6981396000  IONS      36              1.0000000000
        37        37  SOD       SOD            22.7798075000       22.5530278000       38.1040007000  IONS      37              1.0000000000
        38        38  CLA       CLA           -14.3802793000      -32.6919764000       39.6808349000  IONS      38             -1.0000000000
        39        39  CLA       CLA            15.5860297000      -33.5912800000       36.5257824000  IONS      39             -1.0000000000
        40        40  CLA       CLA            24.7235399000       30.2983182000      -40.7671131000  IONS      40             -1.0000000000
        41        41  CLA       CLA             6.0716626400       12.9497295000      -38.7530458000  IONS      41             -1.0000000000
        42        42  CLA       CLA            25.5409701002        6.3116399879       39.3987404061  IONS      42             -1.0000000000
        43        43  CLA       CLA            12.0948352000       24.0360566000      -40.3722065000  IONS      43             -1.0000000000
        44        44  CLA       CLA             5.9802666600      -22.8190968000       35.5116559000  IONS      44             -1.0000000000
        45        45  CLA       CLA           -20.2555168000        3.5651269000      -26.7720584000  IONS      45             -1.0000000000
        46        46  CLA       CLA            19.7597576952      -15.5750402785      -26.2806707797  IONS      46             -1.0000000000
        47        47  CLA       CLA           -10.3493587000       28.1436813000       25.3468055000  IONS      47             -1.0000000000
        48        48  CLA       CLA           -21.2927694000        2.2367351000       42.2695882000  IONS      48             -1.0000000000
        49        49  CLA       CLA            12.9568158858       -3.5663541187       38.8183071169  IONS      49             -1.0000000000
        50        50  CLA       CLA           -17.9514154000      -28.1400947000       41.2063931000  IONS      50             -1.0000000000
        51        51  CLA       CLA            13.1173190000      -27.2453430000      -39.1439825000  IONS      51             -1.0000000000
        52        52  CLA       CLA            31.3086622921       -0.3974647032       41.3457550228  IONS      52             -1.0000000000
        53        53  CLA       CLA           -22.1064266000      -20.0871283000       31.6133752000  IONS      53             -1.0000000000
        54        54  CLA       CLA             7.1918645125       14.3641118187      -28.8996994067  IONS      54             -1.0000000000
